thermo_style            custom step etotal ke pe density temp press # what to print
thermo                  1000 # print every 1000 timesteps
dump                    myDump all xyz 1000 dump.xyz # save coordinates every 1000 timesteps

minimize 		1e-6 1e-6 1000 10000 # shift atom locations to minimize the potential energy of the system. Helps if we accidentally introduce atoms that are overlapping and repel each other very strongly.
Generated 0 of 0 mixed pair_coeff terms from geometric mixing rule
Neighbor list info ...
  update: every = 1 steps, delay = 0 steps, check = yes
  max neighbors/atom: 2000, page size: 100000
  master list distance cutoff = 16.5
  ghost atom cutoff = 16.5
  binsize = 8.25, bins = 72 72 72
  1 neighbor lists, perpetual/occasional/extra = 1 0 0
  (1) pair lj/cut, perpetual
      attributes: half, newton on
      pair build: half/bin/newton
      stencil: half/bin/3d
      bin: standard
Per MPI rank memory allocation (min/avg/max) = 8.9 | 8.9 | 8.9 Mbytes
   Step         TotEng         KinEng         PotEng        Density          Temp          Press     
         0   4374924.9      4470.3208      4370454.5      0.0016026912   300            5794.6079    
      1000   4392.55        4470.3208     -77.770811      0.0016026912   300            0.98717665   
Loop time of 0.272602 on 1 procs for 1000 steps with 5000 atoms

91.7% CPU use with 1 MPI tasks x 1 OpenMP threads

Minimization stats:
  Stopping criterion = max iterations
  Energy initial, next-to-last, final = 
      4370454.54243479  -77.7516412376922  -77.7708110849834
  Force two-norm initial, final = 78222467 0.052153222
  Force max component initial, final = 53055915 0.016723957
  Final line search alpha, max atom move = 0.79681064 0.013325827
  Iterations, force evaluations = 1000 1049

MPI task timing breakdown:
Section |  min time  |  avg time  |  max time  |%varavg| %total
---------------------------------------------------------------
Pair    | 0.036823   | 0.036823   | 0.036823   |   0.0 | 13.51
Bond    | 6.5e-05    | 6.5e-05    | 6.5e-05    |   0.0 |  0.02
Neigh   | 0.062784   | 0.062784   | 0.062784   |   0.0 | 23.03
Comm    | 0.018454   | 0.018454   | 0.018454   |   0.0 |  6.77
Output  | 0.007474   | 0.007474   | 0.007474   |   0.0 |  2.74
Modify  | 0          | 0          | 0          |   0.0 |  0.00
Other   |            | 0.147      |            |       | 53.93

Nlocal:           5000 ave        5000 max        5000 min
Histogram: 1 0 0 0 0 0 0 0 0 0
Nghost:            898 ave         898 max         898 min
Histogram: 1 0 0 0 0 0 0 0 0 0
Neighs:           1154 ave        1154 max        1154 min
Histogram: 1 0 0 0 0 0 0 0 0 0

Total # of neighbors = 1154
Ave neighs/atom = 0.2308
Ave special neighs/atom = 0
Neighbor list builds = 98
Dangerous builds = 0

fix 			balance all balance 1000 1.2 rcb # how to assign the domain to different processors
fix			    integrator all nve # set up F=ma integration

run						${Nsteps}
run						100000
Generated 0 of 0 mixed pair_coeff terms from geometric mixing rule
Per MPI rank memory allocation (min/avg/max) = 9.23 | 9.23 | 9.23 Mbytes
   Step         TotEng         KinEng         PotEng        Density          Temp          Press     
      1000   4392.55        4470.3208     -77.770811      0.0016026912   300            0.98717665   
      2000   4392.5454      4411.8853     -19.339923      0.0016026912   296.07843      0.96697751   
      3000   4392.5407      4411.2072     -18.666488      0.0016026912   296.03292      0.97179543   
      4000   4392.5463      4409.7577     -17.211452      0.0016026912   295.93565      0.9731345    
      5000   4392.5499      4412.98       -20.43007       0.0016026912   296.1519       0.97528587   
      6000   4392.5478      4412.029      -19.481207      0.0016026912   296.08808      0.97036919   
      7000   4392.55        4411.1384     -18.588416      0.0016026912   296.02831      0.97518296   
      8000   4392.5433      4408.7166     -16.173364      0.0016026912   295.86579      0.97644949   
      9000   4392.5416      4410.9011     -18.359526      0.0016026912   296.01238      0.97046505   
     10000   4392.5442      4408.8013     -16.257036      0.0016026912   295.87147      0.97311708   
     11000   4392.5472      4410.8968     -18.349548      0.0016026912   296.0121       0.97383781   
     12000   4392.5535      4410.1325     -17.579008      0.0016026912   295.96081      0.97081853   
     13000   4392.5498      4411.0215     -18.471698      0.0016026912   296.02046      0.97119471   
     14000   4392.5519      4410.7904     -18.238498      0.0016026912   296.00495      0.9713485    
     15000   4392.5503      4409.1587     -16.608434      0.0016026912   295.89546      0.9705384    
     16000   4392.5511      4409.0982     -16.547087      0.0016026912   295.89139      0.97217229   
     17000   4392.5464      4408.7919     -16.245481      0.0016026912   295.87084      0.96987264   
     18000   4392.5457      4410.32       -17.774261      0.0016026912   295.97339      0.973332     
     19000   4392.5443      4410.3812     -17.836901      0.0016026912   295.97749      0.970466     
     20000   4392.5516      4411.059      -18.50743       0.0016026912   296.02298      0.96985336   
     21000   4392.5487      4408.0223     -15.473517      0.0016026912   295.81919      0.97658294   
     22000   4392.5432      4410.59       -18.046833      0.0016026912   295.99151      0.97541285   
     23000   4392.5465      4408.9037     -16.35717       0.0016026912   295.87834      0.97164867   
     24000   4392.544       4408.9135     -16.369492      0.0016026912   295.879        0.97002774   
     25000   4392.5436      4407.9381     -15.394452      0.0016026912   295.81354      0.97610162   
     26000   4392.5465      4409.3828     -16.836233      0.0016026912   295.91049      0.97061327   
     27000   4392.5475      4407.0181     -14.470569      0.0016026912   295.7518       0.97582675   
     28000   4392.5448      4406.6056     -14.060834      0.0016026912   295.72412      0.9732469    
     29000   4392.5429      4409.4309     -16.888084      0.0016026912   295.91372      0.97411993   
     30000   4392.5431      4408.1339     -15.59081       0.0016026912   295.82668      0.97011337   
     31000   4392.546       4408.5135     -15.967531      0.0016026912   295.85215      0.97238627   
     32000   4392.5464      4408.8843     -16.337873      0.0016026912   295.87704      0.97030634   
     33000   4392.5491      4406.4381     -13.888935      0.0016026912   295.71287      0.97225522   
     34000   4392.5503      4409.1312     -16.580931      0.0016026912   295.89361      0.97100454   
     35000   4392.5494      4408.3403     -15.79091       0.0016026912   295.84053      0.9698429    
     36000   4392.55        4408.5356     -15.985583      0.0016026912   295.85364      0.9705201    
     37000   4392.5464      4408.1821     -15.635709      0.0016026912   295.82991      0.97107369   
     38000   4392.5512      4408.272      -15.720775      0.0016026912   295.83595      0.97368865   
     39000   4392.5497      4408.2636     -15.713837      0.0016026912   295.83538      0.97007739   
     40000   4392.5464      4408.7724     -16.225964      0.0016026912   295.86953      0.97144939   
     41000   4392.5442      4407.5114     -14.967234      0.0016026912   295.7849       0.97223874   
     42000   4392.5468      4409.9637     -17.41695       0.0016026912   295.94948      0.97247401   
     43000   4392.5468      4409.4978     -16.951013      0.0016026912   295.91821      0.97163852   
     44000   4392.5508      4409.0925     -16.541758      0.0016026912   295.89101      0.97055861   
     45000   4392.554       4409.2998     -16.745737      0.0016026912   295.90492      0.9727137    
     46000   4392.5524      4405.4517     -12.899278      0.0016026912   295.64668      0.97649777   
     47000   4392.5538      4408.5612     -16.007425      0.0016026912   295.85536      0.97085385   
     48000   4392.5525      4409.8319     -17.27944       0.0016026912   295.94063      0.97042532   
     49000   4392.5516      4408.0156     -15.464003      0.0016026912   295.81874      0.97291725   
     50000   4392.5527      4407.5961     -15.043449      0.0016026912   295.79059      0.97133376   
     51000   4392.5537      4409.5194     -16.965655      0.0016026912   295.91966      0.97272477   
     52000   4392.5556      4409.3621     -16.806465      0.0016026912   295.9091       0.97370389   
     53000   4392.5532      4406.7108     -14.157668      0.0016026912   295.73118      0.97081412   
     54000   4392.5508      4406.4774     -13.926616      0.0016026912   295.71552      0.97039129   
     55000   4392.5573      4406.7836     -14.226312      0.0016026912   295.73606      0.97100174   
     56000   4392.5517      4408.0951     -15.543405      0.0016026912   295.82408      0.97048046   
     57000   4392.5489      4407.448      -14.899069      0.0016026912   295.78065      0.9754277    
     58000   4392.5473      4408.3523     -15.80497       0.0016026912   295.84133      0.97058016   
     59000   4392.5468      4408.9114     -16.364566      0.0016026912   295.87885      0.97046901   
     60000   4392.548       4408.375      -15.827039      0.0016026912   295.84286      0.97452449   
     61000   4392.5501      4407.2199     -14.669832      0.0016026912   295.76534      0.97143795   
     62000   4392.545       4407.605      -15.05999       0.0016026912   295.79119      0.9723318    
     63000   4392.5499      4407.4947     -14.94481       0.0016026912   295.78379      0.97048257   
     64000   4392.5506      4407.5523     -15.001678      0.0016026912   295.78765      0.97614359   
     65000   4392.5465      4409.2493     -16.702821      0.0016026912   295.90154      0.96961936   
     66000   4392.5454      4407.7673     -15.221886      0.0016026912   295.80208      0.9715876    
     67000   4392.5495      4407.4339     -14.884435      0.0016026912   295.77971      0.97005597   
     68000   4392.5495      4408.5385     -15.988958      0.0016026912   295.85383      0.96944121   
     69000   4392.5515      4406.3804     -13.828898      0.0016026912   295.709        0.97140472   
     70000   4392.5546      4407.1796     -14.625018      0.0016026912   295.76264      0.9722841    
     71000   4392.5554      4407.7241     -15.168721      0.0016026912   295.79918      0.96962796   
     72000   4392.5543      4407.7843     -15.22995       0.0016026912   295.80322      0.97053886   
     73000   4392.5546      4405.9699     -13.415213      0.0016026912   295.68145      0.97296651   
     74000   4392.5574      4407.0515     -14.494064      0.0016026912   295.75404      0.97003143   
     75000   4392.5563      4407.8665     -15.310217      0.0016026912   295.80873      0.9714539    
     76000   4392.5538      4408.3892     -15.835371      0.0016026912   295.84381      0.97097659   
     77000   4392.5521      4405.9495     -13.397331      0.0016026912   295.68008      0.97486671   
     78000   4392.5471      4409.8429     -17.295777      0.0016026912   295.94137      0.97032517   
     79000   4392.5509      4408.3079     -15.756955      0.0016026912   295.83836      0.96911787   
     80000   4392.5543      4407.2828     -14.72852       0.0016026912   295.76957      0.97282429   
     81000   4392.5529      4406.4342     -13.881342      0.0016026912   295.71262      0.97077123   
     82000   4392.5516      4407.6351     -15.083483      0.0016026912   295.7932       0.97295354   
     83000   4392.5475      4408.114      -15.566471      0.0016026912   295.82534      0.96991249   
     84000   4392.5475      4406.3055     -13.757967      0.0016026912   295.70398      0.97277348   
     85000   4392.5516      4408.2505     -15.69896       0.0016026912   295.83451      0.97076025   
     86000   4392.5548      4406.5356     -13.980741      0.0016026912   295.71942      0.97013171   
     87000   4392.5505      4407.0805     -14.529945      0.0016026912   295.75599      0.97048893   
     88000   4392.5503      4408.4453     -15.894999      0.0016026912   295.84758      0.97173775   
     89000   4392.5456      4407.8863     -15.340667      0.0016026912   295.81006      0.9729843    
     90000   4392.5448      4406.6637     -14.118893      0.0016026912   295.72802      0.96977106   
     91000   4392.548       4406.8514     -14.303395      0.0016026912   295.74061      0.97297701   
     92000   4392.5481      4408.7935     -16.245451      0.0016026912   295.87095      0.97063774   
     93000   4392.5512      4406.6037     -14.052483      0.0016026912   295.72399      0.97232415   
     94000   4392.5543      4406.3058     -13.751443      0.0016026912   295.70399      0.97115669   
     95000   4392.5585      4407.7365     -15.178056      0.0016026912   295.80001      0.97171052   
     96000   4392.5532      4406.8872     -14.333941      0.0016026912   295.74301      0.9710042    
     97000   4392.5492      4406.2548     -13.705505      0.0016026912   295.70057      0.9726016    
     98000   4392.5487      4406.9914     -14.442731      0.0016026912   295.75001      0.97423666   
     99000   4392.553       4406.2768     -13.723796      0.0016026912   295.70205      0.97045149   
    100000   4392.5481      4405.4827     -12.934608      0.0016026912   295.64876      0.9712832    
    101000   4392.5512      4405.836      -13.284814      0.0016026912   295.67247      0.97056929   
Loop time of 9.60714 on 1 procs for 100000 steps with 5000 atoms

Performance: 899.331 ns/day, 0.027 hours/ns, 10408.921 timesteps/s, 52.045 Matom-step/s
98.1% CPU use with 1 MPI tasks x 1 OpenMP threads

MPI task timing breakdown:
Section |  min time  |  avg time  |  max time  |%varavg| %total
---------------------------------------------------------------
Pair    | 2.2072     | 2.2072     | 2.2072     |   0.0 | 22.97
Bond    | 0.005756   | 0.005756   | 0.005756   |   0.0 |  0.06
Neigh   | 0.79678    | 0.79678    | 0.79678    |   0.0 |  8.29
Comm    | 1.1811     | 1.1811     | 1.1811     |   0.0 | 12.29
Output  | 0.74865    | 0.74865    | 0.74865    |   0.0 |  7.79
Modify  | 3.415      | 3.415      | 3.415      |   0.0 | 35.55
Other   |            | 1.253      |            |       | 13.04

Nlocal:           5000 ave        5000 max        5000 min
Histogram: 1 0 0 0 0 0 0 0 0 0
Nghost:            871 ave         871 max         871 min
Histogram: 1 0 0 0 0 0 0 0 0 0
Neighs:           1149 ave        1149 max        1149 min
Histogram: 1 0 0 0 0 0 0 0 0 0

Total # of neighbors = 1149
Ave neighs/atom = 0.2298
Ave special neighs/atom = 0
Neighbor list builds = 1191
Dangerous builds = 0
print                   "simulation done."
simulation done.










Total wall time: 0:00:09
thermo_style            custom step etotal ke pe density temp press # what to print
thermo                  1000 # print every 1000 timesteps
dump                    myDump all xyz 1000 dump.xyz # save coordinates every 1000 timesteps

minimize 		1e-6 1e-6 1000 10000 # shift atom locations to minimize the potential energy of the system. Helps if we accidentally introduce atoms that are overlapping and repel each other very strongly.
Generated 0 of 0 mixed pair_coeff terms from geometric mixing rule
Neighbor list info ...
  update: every = 1 steps, delay = 0 steps, check = yes
  max neighbors/atom: 2000, page size: 100000
  master list distance cutoff = 16.5
  ghost atom cutoff = 16.5
  binsize = 8.25, bins = 72 72 72
  1 neighbor lists, perpetual/occasional/extra = 1 0 0
  (1) pair lj/cut, perpetual
      attributes: half, newton on
      pair build: half/bin/newton
      stencil: half/bin/3d
      bin: standard
Per MPI rank memory allocation (min/avg/max) = 8.99 | 8.99 | 8.99 Mbytes
   Step         TotEng         KinEng         PotEng        Density          Temp          Press     
         0   5019245.4      8941.5359      5010303.9      0.0032053824   300            6644.594     
      1000   8688.1648      8941.5359     -253.37111      0.0032053824   300            1.97373      
Loop time of 0.627664 on 1 procs for 1000 steps with 10000 atoms

89.6% CPU use with 1 MPI tasks x 1 OpenMP threads

Minimization stats:
  Stopping criterion = max iterations
  Energy initial, next-to-last, final = 
      5010303.89531595  -253.309183464862  -253.371114802853
  Force two-norm initial, final = 78699981 0.4082438
  Force max component initial, final = 53055915 0.14859304
  Final line search alpha, max atom move = 0.40898328 0.060772071
  Iterations, force evaluations = 1000 1017

MPI task timing breakdown:
Section |  min time  |  avg time  |  max time  |%varavg| %total
---------------------------------------------------------------
Pair    | 0.1244     | 0.1244     | 0.1244     |   0.0 | 19.82
Bond    | 5.6e-05    | 5.6e-05    | 5.6e-05    |   0.0 |  0.01
Neigh   | 0.12105    | 0.12105    | 0.12105    |   0.0 | 19.29
Comm    | 0.0379     | 0.0379     | 0.0379     |   0.0 |  6.04
Output  | 0.050202   | 0.050202   | 0.050202   |   0.0 |  8.00
Modify  | 0          | 0          | 0          |   0.0 |  0.00
Other   |            | 0.2941     |            |       | 46.85

Nlocal:          10000 ave       10000 max       10000 min
Histogram: 1 0 0 0 0 0 0 0 0 0
Nghost:           1788 ave        1788 max        1788 min
Histogram: 1 0 0 0 0 0 0 0 0 0
Neighs:           4471 ave        4471 max        4471 min
Histogram: 1 0 0 0 0 0 0 0 0 0

Total # of neighbors = 4471
Ave neighs/atom = 0.4471
Ave special neighs/atom = 0
Neighbor list builds = 102
Dangerous builds = 0

fix 			balance all balance 1000 1.2 rcb # how to assign the domain to different processors
fix			    integrator all nve # set up F=ma integration

run						${Nsteps}
run						100000
Generated 0 of 0 mixed pair_coeff terms from geometric mixing rule
Per MPI rank memory allocation (min/avg/max) = 9.758 | 9.758 | 9.758 Mbytes
   Step         TotEng         KinEng         PotEng        Density          Temp          Press     
      1000   8688.1648      8941.5359     -253.37111      0.0032053824   300            1.97373      
      2000   8688.1519      8742.4477     -54.295756      0.0032053824   293.32033      1.9157237    
      3000   8688.1346      8739.4835     -51.348926      0.0032053824   293.22088      1.9265649    
      4000   8688.1505      8743.289      -55.138536      0.0032053824   293.34856      1.9259974    
      5000   8688.1549      8748.2795     -60.124526      0.0032053824   293.516        1.9294495    
      6000   8688.1448      8745.5133     -57.368522      0.0032053824   293.42319      1.9231216    
      7000   8688.1365      8744.3167     -56.180198      0.0032053824   293.38304      1.9258682    
      8000   8688.1282      8749.709      -61.580787      0.0032053824   293.56396      1.9234207    
      9000   8688.1273      8750.477      -62.349654      0.0032053824   293.58973      1.919382     
     10000   8688.1307      8748.4122     -60.281498      0.0032053824   293.52045      1.9231678    
     11000   8688.1367      8739.725      -51.588357      0.0032053824   293.22899      1.9239169    
     12000   8688.1502      8742.5869     -54.436677      0.0032053824   293.32501      1.920357     
     13000   8688.1475      8741.6111     -53.463579      0.0032053824   293.29227      1.9190997    
     14000   8688.1523      8745.2557     -57.103385      0.0032053824   293.41455      1.9218605    
     15000   8688.1494      8741.0926     -52.943137      0.0032053824   293.27487      1.9230088    
     16000   8688.1447      8741.805      -53.660396      0.0032053824   293.29877      1.9271162    
     17000   8688.1371      8742.1702     -54.033047      0.0032053824   293.31102      1.9247553    
     18000   8688.1411      8745.3578     -57.216706      0.0032053824   293.41797      1.9276091    
     19000   8688.1401      8741.2273     -53.087142      0.0032053824   293.27939      1.9244731    
     20000   8688.1329      8740.4042     -52.271296      0.0032053824   293.25177      1.9221647    
     21000   8688.1337      8739.8611     -51.727393      0.0032053824   293.23355      1.9257028    
     22000   8688.1407      8738.2775     -50.136799      0.0032053824   293.18042      1.9263993    
     23000   8688.1399      8741.7403     -53.600486      0.0032053824   293.2966       1.9230009    
     24000   8688.146       8740.4583     -52.31238       0.0032053824   293.25359      1.9264108    
     25000   8688.1459      8737.5513     -49.405408      0.0032053824   293.15605      1.9243258    
     26000   8688.1481      8733.6932     -45.545168      0.0032053824   293.02661      1.9327252    
     27000   8688.1381      8738.6907     -50.552682      0.0032053824   293.19428      1.924561     
     28000   8688.1319      8736.7364     -48.604497      0.0032053824   293.12872      1.9273198    
     29000   8688.1413      8733.1923     -45.051         0.0032053824   293.0098       1.9240167    
     30000   8688.1506      8734.6897     -46.53905       0.0032053824   293.06004      1.9231354    
     31000   8688.1531      8733.8302     -45.677109      0.0032053824   293.03121      1.925491     
     32000   8688.1511      8736.2392     -48.088069      0.0032053824   293.11203      1.9286481    
     33000   8688.1426      8733.5039     -45.361349      0.0032053824   293.02026      1.9293485    
     34000   8688.1379      8731.0863     -42.948416      0.0032053824   292.93915      1.9349117    
     35000   8688.1381      8736.7017     -48.563593      0.0032053824   293.12755      1.9235557    
     36000   8688.1251      8734.6354     -46.510319      0.0032053824   293.05822      1.9266648    
     37000   8688.1287      8733.5516     -45.422894      0.0032053824   293.02186      1.9248939    
     38000   8688.131       8732.9447     -44.813747      0.0032053824   293.0015       1.9263297    
     39000   8688.1344      8731.8984     -43.764003      0.0032053824   292.96639      1.9219018    
     40000   8688.1404      8734.5201     -46.379609      0.0032053824   293.05435      1.9248265    
     41000   8688.1434      8729.6741     -41.530731      0.0032053824   292.89176      1.9251268    
     42000   8688.1357      8730.3624     -42.226745      0.0032053824   292.91486      1.9238815    
     43000   8688.1439      8733.0776     -44.93375       0.0032053824   293.00596      1.9192429    
     44000   8688.1529      8730.3762     -42.223377      0.0032053824   292.91532      1.9210954    
     45000   8688.1606      8731.6155     -43.454856      0.0032053824   292.9569       1.9260757    
     46000   8688.1598      8730.4509     -42.29113       0.0032053824   292.91783      1.9231606    
     47000   8688.1555      8729.555      -41.399487      0.0032053824   292.88777      1.921827     
     48000   8688.152       8725.8358     -37.683858      0.0032053824   292.76299      1.9294977    
     49000   8688.153       8730.3967     -42.243726      0.0032053824   292.91601      1.9197749    
     50000   8688.154       8732.387      -44.232977      0.0032053824   292.98279      1.9179297    
     51000   8688.1545      8729.5798     -41.425217      0.0032053824   292.8886       1.9227561    
     52000   8688.1578      8729.9155     -41.757685      0.0032053824   292.89986      1.9209704    
     53000   8688.1582      8729.9876     -41.829419      0.0032053824   292.90228      1.9264422    
     54000   8688.1549      8726.8206     -38.665662      0.0032053824   292.79603      1.929322     
     55000   8688.1521      8725.0185     -36.866404      0.0032053824   292.73556      1.9273491    
     56000   8688.149       8726.6946     -38.545601      0.0032053824   292.7918       1.9194206    
     57000   8688.1519      8727.6321     -39.480223      0.0032053824   292.82325      1.9239015    
     58000   8688.1627      8730.8769     -42.714137      0.0032053824   292.93212      1.9229779    
     59000   8688.1621      8731.367      -43.204885      0.0032053824   292.94856      1.9185085    
     60000   8688.1671      8724.0119     -35.844755      0.0032053824   292.70179      1.9274119    
     61000   8688.164       8725.6048     -37.440894      0.0032053824   292.75524      1.9204971    
     62000   8688.1623      8729.6128     -41.45054       0.0032053824   292.88971      1.9196399    
     63000   8688.1563      8724.9136     -36.757325      0.0032053824   292.73204      1.9273578    
     64000   8688.147       8725.5799     -37.432879      0.0032053824   292.7544       1.9194166    
     65000   8688.1428      8727.0331     -38.890292      0.0032053824   292.80316      1.9267468    
     66000   8688.1476      8727.9508     -39.803187      0.0032053824   292.83395      1.9236565    
     67000   8688.1568      8724.6429     -36.486083      0.0032053824   292.72296      1.9271254    
     68000   8688.1575      8728.6313     -40.473752      0.0032053824   292.85678      1.921494     
     69000   8688.1654      8724.8175     -36.652013      0.0032053824   292.72882      1.9191944    
     70000   8688.1607      8725.7478     -37.587072      0.0032053824   292.76003      1.92312      
     71000   8688.1558      8721.8101     -33.65427       0.0032053824   292.62792      1.9240337    
     72000   8688.1582      8722.937      -34.778813      0.0032053824   292.66573      1.9324728    
     73000   8688.16        8723.5935     -35.433494      0.0032053824   292.68775      1.9243014    
     74000   8688.1615      8724.5617     -36.400226      0.0032053824   292.72024      1.9287246    
     75000   8688.1657      8724.5702     -36.40452       0.0032053824   292.72052      1.92485      
     76000   8688.1689      8721.9413     -33.772397      0.0032053824   292.63232      1.9209921    
     77000   8688.1634      8721.7471     -33.583751      0.0032053824   292.6258       1.919997     
     78000   8688.1642      8722.1356     -33.971315      0.0032053824   292.63884      1.9217528    
     79000   8688.1715      8722.7062     -34.534733      0.0032053824   292.65798      1.919856     
     80000   8688.1698      8723.4978     -35.328021      0.0032053824   292.68454      1.923121     
     81000   8688.1665      8722.7749     -34.608375      0.0032053824   292.66029      1.9212797    
     82000   8688.154       8723.0302     -34.876271      0.0032053824   292.66885      1.9177443    
     83000   8688.1584      8723.1722     -35.013765      0.0032053824   292.67362      1.9247909    
     84000   8688.1556      8721.9797     -33.82405       0.0032053824   292.63361      1.922804     
     85000   8688.161       8724.3832     -36.222164      0.0032053824   292.71425      1.9243589    
     86000   8688.1653      8725.2656     -37.100305      0.0032053824   292.74385      1.9157328    
     87000   8688.1661      8720.3238     -32.157733      0.0032053824   292.57805      1.9245909    
     88000   8688.157       8721.1199     -32.962877      0.0032053824   292.60476      1.9330963    
     89000   8688.1612      8725.7044     -37.543167      0.0032053824   292.75857      1.9240763    
     90000   8688.1629      8724.1898     -36.026819      0.0032053824   292.70776      1.9220196    
     91000   8688.1677      8717.6189     -29.45118       0.0032053824   292.4873       1.9292191    
     92000   8688.1666      8723.1153     -34.948606      0.0032053824   292.67171      1.9194527    
     93000   8688.1563      8723.4123     -35.255973      0.0032053824   292.68167      1.9229802    
     94000   8688.1526      8721.9432     -33.790575      0.0032053824   292.63238      1.9238914    
     95000   8688.1497      8723.3425     -35.192817      0.0032053824   292.67933      1.9224865    
     96000   8688.1536      8724.3864     -36.232871      0.0032053824   292.71436      1.9160078    
     97000   8688.1503      8725.1498     -36.999445      0.0032053824   292.73997      1.9221549    
     98000   8688.1522      8721.5265     -33.374257      0.0032053824   292.6184       1.9216705    
     99000   8688.1591      8717.4494     -29.290255      0.0032053824   292.48161      1.9284035    
    100000   8688.1633      8719.1957     -31.03239       0.0032053824   292.5402       1.9224398    
    101000   8688.1676      8718.3057     -30.138108      0.0032053824   292.51034      1.9263113    
Loop time of 23.8283 on 1 procs for 100000 steps with 10000 atoms

Performance: 362.593 ns/day, 0.066 hours/ns, 4196.683 timesteps/s, 41.967 Matom-step/s
99.0% CPU use with 1 MPI tasks x 1 OpenMP threads

MPI task timing breakdown:
Section |  min time  |  avg time  |  max time  |%varavg| %total
---------------------------------------------------------------
Pair    | 9.1923     | 9.1923     | 9.1923     |   0.0 | 38.58
Bond    | 0.006022   | 0.006022   | 0.006022   |   0.0 |  0.03
Neigh   | 1.6267     | 1.6267     | 1.6267     |   0.0 |  6.83
Comm    | 2.4318     | 2.4318     | 2.4318     |   0.0 | 10.21
Output  | 1.4927     | 1.4927     | 1.4927     |   0.0 |  6.26
Modify  | 6.7255     | 6.7255     | 6.7255     |   0.0 | 28.22
Other   |            | 2.353      |            |       |  9.88

Nlocal:          10000 ave       10000 max       10000 min
Histogram: 1 0 0 0 0 0 0 0 0 0
Nghost:           1715 ave        1715 max        1715 min
Histogram: 1 0 0 0 0 0 0 0 0 0
Neighs:           4487 ave        4487 max        4487 min
Histogram: 1 0 0 0 0 0 0 0 0 0

Total # of neighbors = 4487
Ave neighs/atom = 0.4487
Ave special neighs/atom = 0
Neighbor list builds = 1282
Dangerous builds = 0
print                   "simulation done."
simulation done.










Total wall time: 0:00:24
thermo_style            custom step etotal ke pe density temp press # what to print
thermo                  1000 # print every 1000 timesteps
dump                    myDump all xyz 1000 dump.xyz # save coordinates every 1000 timesteps

minimize 		1e-6 1e-6 1000 10000 # shift atom locations to minimize the potential energy of the system. Helps if we accidentally introduce atoms that are overlapping and repel each other very strongly.
Generated 0 of 0 mixed pair_coeff terms from geometric mixing rule
Neighbor list info ...
  update: every = 1 steps, delay = 0 steps, check = yes
  max neighbors/atom: 2000, page size: 100000
  master list distance cutoff = 16.5
  ghost atom cutoff = 16.5
  binsize = 8.25, bins = 72 72 72
  1 neighbor lists, perpetual/occasional/extra = 1 0 0
  (1) pair lj/cut, perpetual
      attributes: half, newton on
      pair build: half/bin/newton
      stencil: half/bin/3d
      bin: standard
Per MPI rank memory allocation (min/avg/max) = 8.9 | 8.9 | 8.9 Mbytes
   Step         TotEng         KinEng         PotEng        Density          Temp          Press     
         0   4373434.8      2980.2139      4370454.5      0.0016026912   200            5794.2787    
      1000   2902.4431      2980.2139     -77.770811      0.0016026912   200            0.65803257   
Loop time of 0.267535 on 1 procs for 1000 steps with 5000 atoms

87.6% CPU use with 1 MPI tasks x 1 OpenMP threads

Minimization stats:
  Stopping criterion = max iterations
  Energy initial, next-to-last, final = 
      4370454.54243479  -77.7516412376922  -77.7708110849834
  Force two-norm initial, final = 78222467 0.052153222
  Force max component initial, final = 53055915 0.016723957
  Final line search alpha, max atom move = 0.79681064 0.013325827
  Iterations, force evaluations = 1000 1049

MPI task timing breakdown:
Section |  min time  |  avg time  |  max time  |%varavg| %total
---------------------------------------------------------------
Pair    | 0.035576   | 0.035576   | 0.035576   |   0.0 | 13.30
Bond    | 5e-05      | 5e-05      | 5e-05      |   0.0 |  0.02
Neigh   | 0.060166   | 0.060166   | 0.060166   |   0.0 | 22.49
Comm    | 0.017865   | 0.017865   | 0.017865   |   0.0 |  6.68
Output  | 0.007474   | 0.007474   | 0.007474   |   0.0 |  2.79
Modify  | 0          | 0          | 0          |   0.0 |  0.00
Other   |            | 0.1464     |            |       | 54.72

Nlocal:           5000 ave        5000 max        5000 min
Histogram: 1 0 0 0 0 0 0 0 0 0
Nghost:            898 ave         898 max         898 min
Histogram: 1 0 0 0 0 0 0 0 0 0
Neighs:           1154 ave        1154 max        1154 min
Histogram: 1 0 0 0 0 0 0 0 0 0

Total # of neighbors = 1154
Ave neighs/atom = 0.2308
Ave special neighs/atom = 0
Neighbor list builds = 98
Dangerous builds = 0

fix 			balance all balance 1000 1.2 rcb # how to assign the domain to different processors
fix			    integrator all nve # set up F=ma integration

run						${Nsteps}
run						100000
Generated 0 of 0 mixed pair_coeff terms from geometric mixing rule
Per MPI rank memory allocation (min/avg/max) = 9.23 | 9.23 | 9.23 Mbytes
   Step         TotEng         KinEng         PotEng        Density          Temp          Press     
      1000   2902.4431      2980.2139     -77.770811      0.0016026912   200            0.65803257   
      2000   2902.4405      2928.534      -26.093505      0.0016026912   196.5318       0.63687069   
      3000   2902.4345      2928.2435     -25.809046      0.0016026912   196.51231      0.6428492    
      4000   2902.4347      2928.2185     -25.7838        0.0016026912   196.51063      0.64403351   
      5000   2902.4357      2927.3734     -24.937757      0.0016026912   196.45391      0.64154349   
      6000   2902.4371      2930.2306     -27.79351       0.0016026912   196.64566      0.64499398   
      7000   2902.4346      2927.1667     -24.732095      0.0016026912   196.44004      0.64210729   
      8000   2902.437       2927.281      -24.843971      0.0016026912   196.44771      0.64390418   
      9000   2902.4344      2927.9294     -25.495061      0.0016026912   196.49123      0.64063545   
     10000   2902.4329      2925.3134     -22.880508      0.0016026912   196.31567      0.64500798   
     11000   2902.4302      2925.9651     -23.534908      0.0016026912   196.3594       0.64383708   
     12000   2902.4312      2926.4034     -23.972137      0.0016026912   196.38882      0.64187386   
     13000   2902.4355      2927.9308     -25.495235      0.0016026912   196.49132      0.64455112   
     14000   2902.4389      2927.4108     -24.971911      0.0016026912   196.45642      0.64377764   
     15000   2902.4398      2927.362      -24.922121      0.0016026912   196.45315      0.64271659   
     16000   2902.4389      2926.8856     -24.446636      0.0016026912   196.42117      0.64149072   
     17000   2902.4401      2926.7457     -24.30565       0.0016026912   196.41179      0.64410749   
     18000   2902.4404      2925.3        -22.859679      0.0016026912   196.31477      0.64376003   
     19000   2902.4388      2924.4714     -22.032633      0.0016026912   196.25916      0.64139939   
     20000   2902.4347      2925.2941     -22.859405      0.0016026912   196.31438      0.6425431    
     21000   2902.4322      2923.6206     -21.188489      0.0016026912   196.20207      0.64356913   
     22000   2902.433       2925.0859     -22.652858      0.0016026912   196.3004       0.644873     
     23000   2902.4332      2925.9849     -23.551764      0.0016026912   196.36073      0.6439026    
     24000   2902.435       2927.4244     -24.989426      0.0016026912   196.45734      0.64136768   
     25000   2902.4393      2926.9308     -24.491525      0.0016026912   196.42421      0.6430421    
     26000   2902.4354      2924.5305     -22.095061      0.0016026912   196.26313      0.64336231   
     27000   2902.4349      2924.8942     -22.459306      0.0016026912   196.28753      0.64306761   
     28000   2902.4356      2924.2188     -21.783283      0.0016026912   196.24221      0.64193542   
     29000   2902.4359      2924.173      -21.737117      0.0016026912   196.23914      0.64244888   
     30000   2902.4344      2924.8139     -22.379528      0.0016026912   196.28215      0.64021028   
     31000   2902.4388      2925.0775     -22.638757      0.0016026912   196.29984      0.64319347   
     32000   2902.4374      2924.0878     -21.650445      0.0016026912   196.23342      0.64074929   
     33000   2902.438       2924.4162     -21.978228      0.0016026912   196.25546      0.64249454   
     34000   2902.4366      2924.4729     -22.036349      0.0016026912   196.25926      0.64360275   
     35000   2902.4341      2926.2019     -23.767816      0.0016026912   196.3753       0.64182113   
     36000   2902.4329      2925.7705     -23.337544      0.0016026912   196.34634      0.6422823    
     37000   2902.4298      2923.7788     -21.348979      0.0016026912   196.21268      0.64166978   
     38000   2902.429       2923.2968     -20.867784      0.0016026912   196.18034      0.64035657   
     39000   2902.4323      2924.1716     -21.73931       0.0016026912   196.23904      0.64188108   
     40000   2902.4366      2922.5063     -20.069709      0.0016026912   196.12729      0.64242988   
     41000   2902.4371      2923.5012     -21.064136      0.0016026912   196.19406      0.64402535   
     42000   2902.4415      2923.1263     -20.684805      0.0016026912   196.1689       0.64149348   
     43000   2902.4411      2922.6464     -20.205249      0.0016026912   196.13669      0.64090721   
     44000   2902.4394      2922.1875     -19.74808       0.0016026912   196.10589      0.64135826   
     45000   2902.4389      2920.7904     -18.351425      0.0016026912   196.01213      0.64163483   
     46000   2902.4436      2922.078      -19.634341      0.0016026912   196.09854      0.64283062   
     47000   2902.4445      2922.1606     -19.716103      0.0016026912   196.10409      0.64193329   
     48000   2902.4415      2923.5419     -21.100373      0.0016026912   196.19678      0.6432139    
     49000   2902.4378      2923.9546     -21.516736      0.0016026912   196.22448      0.64289044   
     50000   2902.4344      2922.5836     -20.149202      0.0016026912   196.13247      0.64195008   
     51000   2902.4371      2922.5138     -20.076708      0.0016026912   196.12779      0.64231519   
     52000   2902.4374      2921.6302     -19.192817      0.0016026912   196.06849      0.64135825   
     53000   2902.4411      2922.8586     -20.417407      0.0016026912   196.15092      0.64218275   
     54000   2902.4441      2921.1813     -18.737202      0.0016026912   196.03837      0.64107087   
     55000   2902.4401      2921.8308     -19.390657      0.0016026912   196.08195      0.64247886   
     56000   2902.4452      2920.6422     -18.197032      0.0016026912   196.00219      0.64193097   
     57000   2902.4449      2920.9852     -18.540263      0.0016026912   196.0252       0.64152338   
     58000   2902.447       2921.9971     -19.550098      0.0016026912   196.09311      0.64177426   
     59000   2902.4426      2921.468      -19.02537       0.0016026912   196.0576       0.64384443   
     60000   2902.4392      2921.0472     -18.608063      0.0016026912   196.02937      0.64434258   
     61000   2902.4422      2921.0567     -18.614549      0.0016026912   196.03001      0.64195925   
     62000   2902.4467      2921.493      -19.046289      0.0016026912   196.05928      0.64199369   
     63000   2902.4483      2921.8071     -19.358821      0.0016026912   196.08036      0.64294433   
     64000   2902.4474      2919.598      -17.150559      0.0016026912   195.93211      0.64260312   
     65000   2902.4454      2920.6717     -18.226316      0.0016026912   196.00417      0.64193546   
     66000   2902.4453      2920.3265     -17.881242      0.0016026912   195.981        0.6424007    
     67000   2902.4411      2920.4447     -18.003614      0.0016026912   195.98894      0.64247581   
     68000   2902.4453      2920.0228     -17.577501      0.0016026912   195.96062      0.64093591   
     69000   2902.4465      2922.9518     -20.505371      0.0016026912   196.15719      0.64279393   
     70000   2902.4438      2921.26       -18.816254      0.0016026912   196.04365      0.64174459   
     71000   2902.4436      2920.3903     -17.946712      0.0016026912   195.98528      0.64071626   
     72000   2902.4423      2920.4063     -17.964003      0.0016026912   195.98635      0.64354111   
     73000   2902.4415      2919.5201     -17.078642      0.0016026912   195.92689      0.64583241   
     74000   2902.4371      2919.8278     -17.390727      0.0016026912   195.94754      0.64166811   
     75000   2902.4401      2920.198      -17.75787       0.0016026912   195.97237      0.64261087   
     76000   2902.4419      2919.7319     -17.290012      0.0016026912   195.9411       0.64246115   
     77000   2902.4423      2919.0808     -16.638448      0.0016026912   195.8974       0.64171358   
     78000   2902.4424      2920.2242     -17.781732      0.0016026912   195.97413      0.64277628   
     79000   2902.4383      2919.584      -17.145689      0.0016026912   195.93117      0.64491827   
     80000   2902.4404      2920.0177     -17.577357      0.0016026912   195.96028      0.64082214   
     81000   2902.4399      2921.0108     -18.570947      0.0016026912   196.02692      0.64073855   
     82000   2902.441       2921.431      -18.989965      0.0016026912   196.05512      0.64170016   
     83000   2902.4383      2919.3372     -16.898852      0.0016026912   195.91461      0.64532912   
     84000   2902.4435      2922.3725     -19.929058      0.0016026912   196.11831      0.64324142   
     85000   2902.4413      2922.4556     -20.014353      0.0016026912   196.12388      0.6421982    
     86000   2902.4411      2920.5202     -18.079084      0.0016026912   195.994        0.64302605   
     87000   2902.447       2918.54       -16.093006      0.0016026912   195.86111      0.64148389   
     88000   2902.4449      2918.8064     -16.361425      0.0016026912   195.87898      0.64063537   
     89000   2902.4482      2919.5917     -17.143541      0.0016026912   195.93169      0.64175554   
     90000   2902.4444      2920.5706     -18.126181      0.0016026912   195.99738      0.64327095   
     91000   2902.4423      2918.7156     -16.273306      0.0016026912   195.8729       0.64388359   
     92000   2902.4417      2919.4001     -16.95839       0.0016026912   195.91883      0.64137342   
     93000   2902.4443      2920.9464     -18.502151      0.0016026912   196.0226       0.64453582   
     94000   2902.4401      2919.8764     -17.436233      0.0016026912   195.95079      0.6419366    
     95000   2902.4388      2919.9617     -17.522848      0.0016026912   195.95652      0.64501718   
     96000   2902.4354      2920.0555     -17.620086      0.0016026912   195.96281      0.641609     
     97000   2902.4384      2919.1868     -16.74844       0.0016026912   195.90452      0.64104296   
     98000   2902.4392      2919.4557     -17.016479      0.0016026912   195.92256      0.64300527   
     99000   2902.4369      2920.3788     -17.941826      0.0016026912   195.98451      0.64274564   
    100000   2902.4418      2920.1333     -17.691489      0.0016026912   195.96803      0.64030312   
    101000   2902.4419      2919.712      -17.270104      0.0016026912   195.93976      0.64412321   
Loop time of 9.5377 on 1 procs for 100000 steps with 5000 atoms

Performance: 905.879 ns/day, 0.026 hours/ns, 10484.708 timesteps/s, 52.424 Matom-step/s
98.0% CPU use with 1 MPI tasks x 1 OpenMP threads

MPI task timing breakdown:
Section |  min time  |  avg time  |  max time  |%varavg| %total
---------------------------------------------------------------
Pair    | 2.267      | 2.267      | 2.267      |   0.0 | 23.77
Bond    | 0.005915   | 0.005915   | 0.005915   |   0.0 |  0.06
Neigh   | 0.66414    | 0.66414    | 0.66414    |   0.0 |  6.96
Comm    | 1.1678     | 1.1678     | 1.1678     |   0.0 | 12.24
Output  | 0.76984    | 0.76984    | 0.76984    |   0.0 |  8.07
Modify  | 3.4085     | 3.4085     | 3.4085     |   0.0 | 35.74
Other   |            | 1.255      |            |       | 13.15

Nlocal:           5000 ave        5000 max        5000 min
Histogram: 1 0 0 0 0 0 0 0 0 0
Nghost:            870 ave         870 max         870 min
Histogram: 1 0 0 0 0 0 0 0 0 0
Neighs:           1207 ave        1207 max        1207 min
Histogram: 1 0 0 0 0 0 0 0 0 0

Total # of neighbors = 1207
Ave neighs/atom = 0.2414
Ave special neighs/atom = 0
Neighbor list builds = 972
Dangerous builds = 0
print                   "simulation done."
simulation done.










Total wall time: 0:00:09
thermo_style            custom step etotal ke pe density temp press # what to print
thermo                  1000 # print every 1000 timesteps
dump                    myDump all xyz 1000 dump.xyz # save coordinates every 1000 timesteps

minimize 		1e-6 1e-6 1000 10000 # shift atom locations to minimize the potential energy of the system. Helps if we accidentally introduce atoms that are overlapping and repel each other very strongly.
Generated 0 of 0 mixed pair_coeff terms from geometric mixing rule
Neighbor list info ...
  update: every = 1 steps, delay = 0 steps, check = yes
  max neighbors/atom: 2000, page size: 100000
  master list distance cutoff = 16.5
  ghost atom cutoff = 16.5
  binsize = 8.25, bins = 72 72 72
  1 neighbor lists, perpetual/occasional/extra = 1 0 0
  (1) pair lj/cut, perpetual
      attributes: half, newton on
      pair build: half/bin/newton
      stencil: half/bin/3d
      bin: standard
Per MPI rank memory allocation (min/avg/max) = 8.9 | 8.9 | 8.9 Mbytes
   Step         TotEng         KinEng         PotEng        Density          Temp          Press     
         0   4376415        5960.4278      4370454.5      0.0016026912   400            5794.937     
      1000   5882.657       5960.4278     -77.770811      0.0016026912   400            1.3163207    
Loop time of 0.266518 on 1 procs for 1000 steps with 5000 atoms

87.9% CPU use with 1 MPI tasks x 1 OpenMP threads

Minimization stats:
  Stopping criterion = max iterations
  Energy initial, next-to-last, final = 
      4370454.54243479  -77.7516412376922  -77.7708110849834
  Force two-norm initial, final = 78222467 0.052153222
  Force max component initial, final = 53055915 0.016723957
  Final line search alpha, max atom move = 0.79681064 0.013325827
  Iterations, force evaluations = 1000 1049

MPI task timing breakdown:
Section |  min time  |  avg time  |  max time  |%varavg| %total
---------------------------------------------------------------
Pair    | 0.035543   | 0.035543   | 0.035543   |   0.0 | 13.34
Bond    | 7.1e-05    | 7.1e-05    | 7.1e-05    |   0.0 |  0.03
Neigh   | 0.060275   | 0.060275   | 0.060275   |   0.0 | 22.62
Comm    | 0.017845   | 0.017845   | 0.017845   |   0.0 |  6.70
Output  | 0.007402   | 0.007402   | 0.007402   |   0.0 |  2.78
Modify  | 0          | 0          | 0          |   0.0 |  0.00
Other   |            | 0.1454     |            |       | 54.55

Nlocal:           5000 ave        5000 max        5000 min
Histogram: 1 0 0 0 0 0 0 0 0 0
Nghost:            898 ave         898 max         898 min
Histogram: 1 0 0 0 0 0 0 0 0 0
Neighs:           1154 ave        1154 max        1154 min
Histogram: 1 0 0 0 0 0 0 0 0 0

Total # of neighbors = 1154
Ave neighs/atom = 0.2308
Ave special neighs/atom = 0
Neighbor list builds = 98
Dangerous builds = 0

fix 			balance all balance 1000 1.2 rcb # how to assign the domain to different processors
fix			    integrator all nve # set up F=ma integration

run						${Nsteps}
run						100000
Generated 0 of 0 mixed pair_coeff terms from geometric mixing rule
Per MPI rank memory allocation (min/avg/max) = 9.23 | 9.23 | 9.23 Mbytes
   Step         TotEng         KinEng         PotEng        Density          Temp          Press     
      1000   5882.657       5960.4278     -77.770811      0.0016026912   400            1.3163207    
      2000   5882.6522      5896.3918     -13.739546      0.0016026912   395.70259      1.2997103    
      3000   5882.6524      5896.1441     -13.491697      0.0016026912   395.68597      1.3019114    
      4000   5882.6557      5898.342      -15.68627       0.0016026912   395.83347      1.2986616    
      5000   5882.6573      5898.7975     -16.14012       0.0016026912   395.86403      1.3011326    
      6000   5882.6581      5895.3324     -12.674304      0.0016026912   395.6315       1.306075     
      7000   5882.6523      5896.1977     -13.545397      0.0016026912   395.68956      1.3026596    
      8000   5882.6491      5896.4427     -13.793608      0.0016026912   395.70601      1.3002608    
      9000   5882.6516      5896.2936     -13.642053      0.0016026912   395.696        1.301347     
     10000   5882.6609      5895.7888     -13.127862      0.0016026912   395.66212      1.3017101    
     11000   5882.6616      5899.4376     -16.776064      0.0016026912   395.907        1.3007066    
     12000   5882.6613      5896.1679     -13.506553      0.0016026912   395.68756      1.3008066    
     13000   5882.6595      5896.2424     -13.582963      0.0016026912   395.69257      1.3014462    
     14000   5882.6614      5896.3196     -13.658186      0.0016026912   395.69775      1.3011267    
     15000   5882.6545      5895.2296     -12.575016      0.0016026912   395.6246       1.2998793    
     16000   5882.6556      5896.6848     -14.029272      0.0016026912   395.72226      1.3009243    
     17000   5882.6567      5895.8999     -13.243191      0.0016026912   395.66958      1.3013636    
     18000   5882.6587      5898.0429     -15.384212      0.0016026912   395.8134       1.3029317    
     19000   5882.6486      5896.1154     -13.466783      0.0016026912   395.68404      1.3003592    
     20000   5882.6548      5897.6482     -14.993451      0.0016026912   395.78691      1.2991278    
     21000   5882.6543      5896.7614     -14.107135      0.0016026912   395.72739      1.2984491    
     22000   5882.6577      5895.7054     -13.047669      0.0016026912   395.65653      1.3015896    
     23000   5882.6561      5896.2963     -13.64027       0.0016026912   395.69619      1.3001556    
     24000   5882.6572      5896.2921     -13.634899      0.0016026912   395.6959       1.3023416    
     25000   5882.6531      5896.9927     -14.339591      0.0016026912   395.74292      1.3007021    
     26000   5882.6541      5896.1017     -13.447587      0.0016026912   395.68312      1.3019013    
     27000   5882.6523      5895.7596     -13.107353      0.0016026912   395.66017      1.3036816    
     28000   5882.6591      5895.4985     -12.839336      0.0016026912   395.64264      1.3013044    
     29000   5882.6588      5895.5838     -12.925019      0.0016026912   395.64837      1.3014967    
     30000   5882.6573      5896.5933     -13.935967      0.0016026912   395.71612      1.3034547    
     31000   5882.66        5896.4485     -13.788516      0.0016026912   395.7064       1.2982873    
     32000   5882.6574      5895.994      -13.336525      0.0016026912   395.67589      1.3027317    
     33000   5882.6591      5895.9509     -13.291861      0.0016026912   395.67301      1.3005977    
     34000   5882.6538      5897.2171     -14.563247      0.0016026912   395.75798      1.2993167    
     35000   5882.6518      5896.7305     -14.078699      0.0016026912   395.72532      1.301105     
     36000   5882.6526      5896.8907     -14.238082      0.0016026912   395.73607      1.3003241    
     37000   5882.6583      5896.8964     -14.238127      0.0016026912   395.73646      1.3003936    
     38000   5882.6615      5896.5467     -13.885207      0.0016026912   395.71299      1.3033982    
     39000   5882.6636      5894.7117     -12.048114      0.0016026912   395.58984      1.2996093    
     40000   5882.6585      5895.0292     -12.370635      0.0016026912   395.61115      1.3015936    
     41000   5882.6622      5896.6497     -13.987529      0.0016026912   395.7199       1.3029908    
     42000   5882.6579      5896.4949     -13.83702       0.0016026912   395.70951      1.3029988    
     43000   5882.6577      5894.4175     -11.759741      0.0016026912   395.5701       1.3041646    
     44000   5882.659       5895.6211     -12.962141      0.0016026912   395.65087      1.3005671    
     45000   5882.6613      5895.9712     -13.309896      0.0016026912   395.67437      1.300536     
     46000   5882.6644      5895.6526     -12.988191      0.0016026912   395.65298      1.2995191    
     47000   5882.6652      5894.2206     -11.555356      0.0016026912   395.55688      1.3004889    
     48000   5882.6647      5895.6533     -12.988696      0.0016026912   395.65303      1.3029576    
     49000   5882.6591      5896.391      -13.731876      0.0016026912   395.70254      1.3012843    
     50000   5882.6585      5894.9523     -12.293782      0.0016026912   395.60599      1.3019091    
     51000   5882.6607      5894.2805     -11.61978       0.0016026912   395.56091      1.3009335    
     52000   5882.6568      5894.5241     -11.867234      0.0016026912   395.57725      1.3003268    
     53000   5882.658       5893.8104     -11.152335      0.0016026912   395.52935      1.3026382    
     54000   5882.6609      5893.6471     -10.986178      0.0016026912   395.51839      1.303494     
     55000   5882.6577      5895.3906     -12.732847      0.0016026912   395.6354       1.3016358    
     56000   5882.6538      5894.7805     -12.12668       0.0016026912   395.59446      1.2994745    
     57000   5882.65        5895.6201     -12.970043      0.0016026912   395.6508       1.3001624    
     58000   5882.6531      5895.5554     -12.902253      0.0016026912   395.64646      1.3010286    
     59000   5882.6544      5894.0978     -11.443386      0.0016026912   395.54864      1.3036817    
     60000   5882.6572      5891.9518     -9.2946401      0.0016026912   395.40463      1.3033409    
     61000   5882.6563      5895.1793     -12.522955      0.0016026912   395.62122      1.2986293    
     62000   5882.6581      5895.7023     -13.044223      0.0016026912   395.65632      1.3042397    
     63000   5882.6614      5894.3809     -11.719544      0.0016026912   395.56764      1.3010454    
     64000   5882.6587      5893.146      -10.487342      0.0016026912   395.48477      1.3000188    
     65000   5882.6605      5895.4945     -12.833937      0.0016026912   395.64237      1.3029174    
     66000   5882.6569      5894.0453     -11.388471      0.0016026912   395.54512      1.302592     
     67000   5882.6539      5896.5412     -13.887278      0.0016026912   395.71262      1.2993834    
     68000   5882.6511      5896.4184     -13.767321      0.0016026912   395.70438      1.3005494    
     69000   5882.6565      5894.2142     -11.557775      0.0016026912   395.55646      1.2984421    
     70000   5882.6596      5892.4937     -9.8340868      0.0016026912   395.44099      1.3024681    
     71000   5882.6631      5894.241      -11.577897      0.0016026912   395.55825      1.301642     
     72000   5882.659       5894.14       -11.481008      0.0016026912   395.55148      1.3018499    
     73000   5882.6597      5894.675      -12.015336      0.0016026912   395.58738      1.3000456    
     74000   5882.6623      5894.2487     -11.586388      0.0016026912   395.55877      1.3030197    
     75000   5882.6622      5893.4262     -10.764026      0.0016026912   395.50357      1.3038088    
     76000   5882.6614      5894.602      -11.940595      0.0016026912   395.58248      1.300632     
     77000   5882.6599      5895.4543     -12.794354      0.0016026912   395.63968      1.3007151    
     78000   5882.6604      5892.882      -10.221562      0.0016026912   395.46705      1.3022253    
     79000   5882.6645      5893.6099     -10.945322      0.0016026912   395.5159       1.2988041    
     80000   5882.6667      5892.8285     -10.161749      0.0016026912   395.46346      1.3031647    
     81000   5882.6654      5894.0985     -11.433137      0.0016026912   395.54869      1.3025043    
     82000   5882.66        5892.485      -9.8249781      0.0016026912   395.44041      1.301817     
     83000   5882.6556      5894.6578     -12.00214       0.0016026912   395.58622      1.3008209    
     84000   5882.6604      5893.6928     -11.032383      0.0016026912   395.52146      1.2995289    
     85000   5882.6618      5891.8826     -9.2207442      0.0016026912   395.39998      1.3041937    
     86000   5882.6539      5894.9959     -12.342         0.0016026912   395.60892      1.3004894    
     87000   5882.6567      5894.1441     -11.487408      0.0016026912   395.55175      1.2996907    
     88000   5882.6583      5895.8206     -13.162298      0.0016026912   395.66426      1.300045     
     89000   5882.6622      5895.4005     -12.738379      0.0016026912   395.63607      1.3001657    
     90000   5882.6581      5895.1006     -12.442475      0.0016026912   395.61594      1.3005008    
     91000   5882.6592      5893.9436     -11.284415      0.0016026912   395.5383       1.2993429    
     92000   5882.6602      5894.4906     -11.830481      0.0016026912   395.57501      1.3010998    
     93000   5882.6631      5893.0862     -10.42304       0.0016026912   395.48075      1.3020671    
     94000   5882.6622      5894.476      -11.813809      0.0016026912   395.57402      1.3012633    
     95000   5882.6604      5894.4538     -11.793463      0.0016026912   395.57254      1.2986847    
     96000   5882.6579      5892.92       -10.262064      0.0016026912   395.4696       1.3023976    
     97000   5882.6551      5893.7326     -11.077462      0.0016026912   395.52413      1.3002045    
     98000   5882.6541      5894.2459     -11.591795      0.0016026912   395.55858      1.2990319    
     99000   5882.6593      5892.7984     -10.139075      0.0016026912   395.46144      1.3033573    
    100000   5882.6644      5893.9314     -11.267024      0.0016026912   395.53748      1.3039386    
    101000   5882.6645      5892.6397     -9.97523        0.0016026912   395.45079      1.3026519    
Loop time of 9.63738 on 1 procs for 100000 steps with 5000 atoms

Performance: 896.509 ns/day, 0.027 hours/ns, 10376.261 timesteps/s, 51.881 Matom-step/s
97.8% CPU use with 1 MPI tasks x 1 OpenMP threads

MPI task timing breakdown:
Section |  min time  |  avg time  |  max time  |%varavg| %total
---------------------------------------------------------------
Pair    | 2.1436     | 2.1436     | 2.1436     |   0.0 | 22.24
Bond    | 0.0055     | 0.0055     | 0.0055     |   0.0 |  0.06
Neigh   | 0.8956     | 0.8956     | 0.8956     |   0.0 |  9.29
Comm    | 1.2063     | 1.2063     | 1.2063     |   0.0 | 12.52
Output  | 0.75564    | 0.75564    | 0.75564    |   0.0 |  7.84
Modify  | 3.3607     | 3.3607     | 3.3607     |   0.0 | 34.87
Other   |            | 1.27       |            |       | 13.18

Nlocal:           5000 ave        5000 max        5000 min
Histogram: 1 0 0 0 0 0 0 0 0 0
Nghost:            863 ave         863 max         863 min
Histogram: 1 0 0 0 0 0 0 0 0 0
Neighs:           1121 ave        1121 max        1121 min
Histogram: 1 0 0 0 0 0 0 0 0 0

Total # of neighbors = 1121
Ave neighs/atom = 0.2242
Ave special neighs/atom = 0
Neighbor list builds = 1341
Dangerous builds = 0
print                   "simulation done."
simulation done.










Total wall time: 0:00:09
thermo_style            custom step etotal ke pe density temp press # what to print
thermo                  1000 # print every 1000 timesteps
dump                    myDump all xyz 1000 dump.xyz # save coordinates every 1000 timesteps

minimize 		1e-6 1e-6 1000 10000 # shift atom locations to minimize the potential energy of the system. Helps if we accidentally introduce atoms that are overlapping and repel each other very strongly.
Generated 0 of 0 mixed pair_coeff terms from geometric mixing rule
Neighbor list info ...
  update: every = 1 steps, delay = 0 steps, check = yes
  max neighbors/atom: 2000, page size: 100000
  master list distance cutoff = 16.5
  ghost atom cutoff = 16.5
  binsize = 8.25, bins = 72 72 72
  1 neighbor lists, perpetual/occasional/extra = 1 0 0
  (1) pair lj/cut, perpetual
      attributes: half, newton on
      pair build: half/bin/newton
      stencil: half/bin/3d
      bin: standard
Per MPI rank memory allocation (min/avg/max) = 8.9 | 8.9 | 8.9 Mbytes
   Step         TotEng         KinEng         PotEng        Density          Temp          Press     
         0   4377905.1      7450.5347      4370454.5      0.0016026912   500            5795.2661    
      1000   7372.7639      7450.5347     -77.770811      0.0016026912   500            1.6454648    
Loop time of 0.267131 on 1 procs for 1000 steps with 5000 atoms

81.9% CPU use with 1 MPI tasks x 1 OpenMP threads

Minimization stats:
  Stopping criterion = max iterations
  Energy initial, next-to-last, final = 
      4370454.54243479  -77.7516412376922  -77.7708110849834
  Force two-norm initial, final = 78222467 0.052153222
  Force max component initial, final = 53055915 0.016723957
  Final line search alpha, max atom move = 0.79681064 0.013325827
  Iterations, force evaluations = 1000 1049

MPI task timing breakdown:
Section |  min time  |  avg time  |  max time  |%varavg| %total
---------------------------------------------------------------
Pair    | 0.035325   | 0.035325   | 0.035325   |   0.0 | 13.22
Bond    | 6.5e-05    | 6.5e-05    | 6.5e-05    |   0.0 |  0.02
Neigh   | 0.060786   | 0.060786   | 0.060786   |   0.0 | 22.76
Comm    | 0.017828   | 0.017828   | 0.017828   |   0.0 |  6.67
Output  | 0.007325   | 0.007325   | 0.007325   |   0.0 |  2.74
Modify  | 0          | 0          | 0          |   0.0 |  0.00
Other   |            | 0.1458     |            |       | 54.58

Nlocal:           5000 ave        5000 max        5000 min
Histogram: 1 0 0 0 0 0 0 0 0 0
Nghost:            898 ave         898 max         898 min
Histogram: 1 0 0 0 0 0 0 0 0 0
Neighs:           1154 ave        1154 max        1154 min
Histogram: 1 0 0 0 0 0 0 0 0 0

Total # of neighbors = 1154
Ave neighs/atom = 0.2308
Ave special neighs/atom = 0
Neighbor list builds = 98
Dangerous builds = 0

fix 			balance all balance 1000 1.2 rcb # how to assign the domain to different processors
fix			    integrator all nve # set up F=ma integration

run						${Nsteps}
run						100000
Generated 0 of 0 mixed pair_coeff terms from geometric mixing rule
Per MPI rank memory allocation (min/avg/max) = 9.23 | 9.23 | 9.23 Mbytes
   Step         TotEng         KinEng         PotEng        Density          Temp          Press     
      1000   7372.7639      7450.5347     -77.770811      0.0016026912   500            1.6454648    
      2000   7372.7573      7386.3965     -13.639209      0.0016026912   495.69573      1.6255883    
      3000   7372.7615      7383.1138     -10.352374      0.0016026912   495.47543      1.6339099    
      4000   7372.7654      7384.878      -12.112505      0.0016026912   495.59382      1.6349826    
      5000   7372.765       7385.0406     -12.275657      0.0016026912   495.60474      1.6303128    
      6000   7372.7627      7383.5926     -10.829934      0.0016026912   495.50756      1.6331095    
      7000   7372.7586      7384.1148     -11.356253      0.0016026912   495.54261      1.6280045    
      8000   7372.7606      7381.5625     -8.8019429      0.0016026912   495.37133      1.6354616    
      9000   7372.7664      7381.8088     -9.0424038      0.0016026912   495.38785      1.6326057    
     10000   7372.7683      7385.4258     -12.657459      0.0016026912   495.63058      1.6315815    
     11000   7372.7721      7384.9125     -12.14038       0.0016026912   495.59614      1.629415     
     12000   7372.7681      7383.49       -10.721885      0.0016026912   495.50068      1.6288555    
     13000   7372.7688      7381.1324     -8.3636367      0.0016026912   495.34246      1.6345893    
     14000   7372.7658      7383.9245     -11.1587        0.0016026912   495.52984      1.6301056    
     15000   7372.7628      7382.9138     -10.151042      0.0016026912   495.46201      1.6326385    
     16000   7372.7659      7384.6638     -11.897928      0.0016026912   495.57945      1.6294647    
     17000   7372.7583      7384.5781     -11.819755      0.0016026912   495.5737       1.6301549    
     18000   7372.7612      7383.5273     -10.766086      0.0016026912   495.50318      1.6316011    
     19000   7372.7612      7384.9072     -12.145963      0.0016026912   495.59578      1.629912     
     20000   7372.764       7383.1086     -10.344628      0.0016026912   495.47508      1.6305342    
     21000   7372.7621      7383.2025     -10.44033       0.0016026912   495.48138      1.6283092    
     22000   7372.7615      7384.1187     -11.357213      0.0016026912   495.54287      1.6292058    
     23000   7372.757       7381.2271     -8.4701742      0.0016026912   495.34882      1.6353685    
     24000   7372.759       7384.9446     -12.185558      0.0016026912   495.59829      1.6305369    
     25000   7372.7647      7382.4645     -9.6998425      0.0016026912   495.43186      1.6323631    
     26000   7372.7659      7382.6181     -9.8521634      0.0016026912   495.44216      1.6303614    
     27000   7372.7669      7384.501      -11.734103      0.0016026912   495.56852      1.6297073    
     28000   7372.7676      7383.4759     -10.708299      0.0016026912   495.49973      1.6303395    
     29000   7372.7684      7383.3433     -10.57488       0.0016026912   495.49083      1.6275184    
     30000   7372.7673      7383.2591     -10.491793      0.0016026912   495.48518      1.6314272    
     31000   7372.7585      7383.3513     -10.592796      0.0016026912   495.49137      1.632688     
     32000   7372.763       7381.9532     -9.1901804      0.0016026912   495.39755      1.6322529    
     33000   7372.7648      7385.015      -12.250149      0.0016026912   495.60302      1.629419     
     34000   7372.7684      7383.0068     -10.23841       0.0016026912   495.46825      1.632419     
     35000   7372.7694      7382.7277     -9.9582802      0.0016026912   495.44952      1.6276882    
     36000   7372.7725      7382.3877     -9.6151574      0.0016026912   495.4267       1.6317333    
     37000   7372.7693      7382.613      -9.8436636      0.0016026912   495.44182      1.6312197    
     38000   7372.7684      7383.2548     -10.486421      0.0016026912   495.4849       1.6328688    
     39000   7372.7714      7382.4807     -9.7093831      0.0016026912   495.43295      1.6298411    
     40000   7372.77        7384.4641     -11.694132      0.0016026912   495.56605      1.630194     
     41000   7372.7691      7384.7479     -11.978748      0.0016026912   495.58509      1.6283163    
     42000   7372.7729      7381.684      -8.9111038      0.0016026912   495.37948      1.6318072    
     43000   7372.7747      7381.8819     -9.1071351      0.0016026912   495.39276      1.6298658    
     44000   7372.772       7383.1435     -10.371518      0.0016026912   495.47742      1.6314363    
     45000   7372.7685      7382.9924     -10.22386       0.0016026912   495.46728      1.6309654    
     46000   7372.7665      7384.017      -11.250477      0.0016026912   495.53604      1.6316338    
     47000   7372.7668      7383.2323     -10.465536      0.0016026912   495.48339      1.628504     
     48000   7372.7674      7382.859      -10.091625      0.0016026912   495.45833      1.6308813    
     49000   7372.7712      7384.3911     -11.619829      0.0016026912   495.56115      1.6288182    
     50000   7372.7694      7379.258      -6.4885753      0.0016026912   495.21667      1.6338195    
     51000   7372.7676      7383.2851     -10.517488      0.0016026912   495.48692      1.631627     
     52000   7372.7637      7383.4316     -10.667922      0.0016026912   495.49676      1.6272096    
     53000   7372.7635      7384.2429     -11.479353      0.0016026912   495.5512       1.6285216    
     54000   7372.7674      7383.709      -10.9416        0.0016026912   495.51538      1.6272972    
     55000   7372.7672      7382.6262     -9.8590058      0.0016026912   495.44271      1.6279371    
     56000   7372.7698      7384.3456     -11.575849      0.0016026912   495.5581       1.628649     
     57000   7372.7673      7381.6292     -8.8619289      0.0016026912   495.3758       1.6294533    
     58000   7372.7684      7383.8614     -11.093046      0.0016026912   495.5256       1.629952     
     59000   7372.7611      7382.1679     -9.406868       0.0016026912   495.41195      1.6289561    
     60000   7372.7614      7383.6453     -10.88399       0.0016026912   495.5111       1.6292864    
     61000   7372.7657      7383.0086     -10.242992      0.0016026912   495.46837      1.6328871    
     62000   7372.7655      7380.7759     -8.0103374      0.0016026912   495.31854      1.6339527    
     63000   7372.7723      7382.0359     -9.2635768      0.0016026912   495.40309      1.6313277    
     64000   7372.7661      7383.0388     -10.272662      0.0016026912   495.4704       1.6283708    
     65000   7372.7586      7382.201      -9.4423273      0.0016026912   495.41417      1.6317746    
     66000   7372.7606      7382.2869     -9.5262552      0.0016026912   495.41994      1.632731     
     67000   7372.7636      7380.0603     -7.296719       0.0016026912   495.27051      1.6344107    
     68000   7372.7619      7383.0927     -10.330769      0.0016026912   495.47401      1.6311602    
     69000   7372.7683      7383.0565     -10.288142      0.0016026912   495.47158      1.6295786    
     70000   7372.7658      7383.3296     -10.563811      0.0016026912   495.48992      1.6326806    
     71000   7372.7631      7382.4339     -9.6707661      0.0016026912   495.4298       1.6303465    
     72000   7372.7643      7383.9777     -11.213408      0.0016026912   495.53341      1.630327     
     73000   7372.7673      7382.6593     -9.8920073      0.0016026912   495.44493      1.6305002    
     74000   7372.7628      7384.8103     -12.047447      0.0016026912   495.58928      1.6307429    
     75000   7372.761       7383.3095     -10.548509      0.0016026912   495.48857      1.6279181    
     76000   7372.7678      7383.5324     -10.764553      0.0016026912   495.50352      1.6274752    
     77000   7372.7703      7381.8898     -9.1195222      0.0016026912   495.39329      1.6315424    
     78000   7372.766       7383.7315     -10.965536      0.0016026912   495.51689      1.6291547    
     79000   7372.7662      7382.0527     -9.2865545      0.0016026912   495.40422      1.6320737    
     80000   7372.7683      7382.4807     -9.7123664      0.0016026912   495.43294      1.6274171    
     81000   7372.7639      7382.7742     -10.010316      0.0016026912   495.45264      1.6277119    
     82000   7372.7666      7381.0312     -8.2645771      0.0016026912   495.33567      1.6365303    
     83000   7372.7708      7382.1402     -9.3694052      0.0016026912   495.4101       1.6291066    
     84000   7372.7722      7382.4462     -9.6739581      0.0016026912   495.43063      1.6281649    
     85000   7372.7652      7380.8682     -8.1030682      0.0016026912   495.32473      1.633755     
     86000   7372.7623      7383.2083     -10.446002      0.0016026912   495.48177      1.6319376    
     87000   7372.761       7384.2866     -11.525557      0.0016026912   495.55414      1.6292937    
     88000   7372.7625      7383.6518     -10.889384      0.0016026912   495.51154      1.629309     
     89000   7372.76        7381.5833     -8.8233723      0.0016026912   495.37272      1.6344464    
     90000   7372.7597      7380.2548     -7.4951601      0.0016026912   495.28357      1.6322993    
     91000   7372.7639      7381.7618     -8.9978417      0.0016026912   495.3847       1.6306775    
     92000   7372.7648      7383.3326     -10.567782      0.0016026912   495.49011      1.6277872    
     93000   7372.7665      7382.3184     -9.5518435      0.0016026912   495.42205      1.6306846    
     94000   7372.7627      7384.097      -11.334289      0.0016026912   495.54141      1.628748     
     95000   7372.7617      7382.5072     -9.7454864      0.0016026912   495.43472      1.6301032    
     96000   7372.7645      7383.6951     -10.930587      0.0016026912   495.51444      1.6286778    
     97000   7372.7657      7381.6531     -8.8874296      0.0016026912   495.3774       1.6304871    
     98000   7372.7637      7382.0093     -9.2455558      0.0016026912   495.40131      1.6299954    
     99000   7372.7625      7381.9278     -9.1652461      0.0016026912   495.39584      1.6325005    
    100000   7372.7634      7382.2738     -9.5104535      0.0016026912   495.41906      1.6317459    
    101000   7372.7666      7381.7402     -8.9735702      0.0016026912   495.38325      1.6320409    
Loop time of 9.7864 on 1 procs for 100000 steps with 5000 atoms

Performance: 882.858 ns/day, 0.027 hours/ns, 10218.262 timesteps/s, 51.091 Matom-step/s
98.5% CPU use with 1 MPI tasks x 1 OpenMP threads

MPI task timing breakdown:
Section |  min time  |  avg time  |  max time  |%varavg| %total
---------------------------------------------------------------
Pair    | 2.1435     | 2.1435     | 2.1435     |   0.0 | 21.90
Bond    | 0.005669   | 0.005669   | 0.005669   |   0.0 |  0.06
Neigh   | 1.0034     | 1.0034     | 1.0034     |   0.0 | 10.25
Comm    | 1.1906     | 1.1906     | 1.1906     |   0.0 | 12.17
Output  | 0.7507     | 0.7507     | 0.7507     |   0.0 |  7.67
Modify  | 3.4389     | 3.4389     | 3.4389     |   0.0 | 35.14
Other   |            | 1.254      |            |       | 12.81

Nlocal:           5000 ave        5000 max        5000 min
Histogram: 1 0 0 0 0 0 0 0 0 0
Nghost:            958 ave         958 max         958 min
Histogram: 1 0 0 0 0 0 0 0 0 0
Neighs:           1146 ave        1146 max        1146 min
Histogram: 1 0 0 0 0 0 0 0 0 0

Total # of neighbors = 1146
Ave neighs/atom = 0.2292
Ave special neighs/atom = 0
Neighbor list builds = 1517
Dangerous builds = 0
print                   "simulation done."
simulation done.










Total wall time: 0:00:10
thermo_style            custom step etotal ke pe density temp press # what to print
thermo                  1000 # print every 1000 timesteps
dump                    myDump all xyz 1000 dump.xyz # save coordinates every 1000 timesteps

minimize 		1e-6 1e-6 1000 10000 # shift atom locations to minimize the potential energy of the system. Helps if we accidentally introduce atoms that are overlapping and repel each other very strongly.
Generated 0 of 0 mixed pair_coeff terms from geometric mixing rule
Neighbor list info ...
  update: every = 1 steps, delay = 0 steps, check = yes
  max neighbors/atom: 2000, page size: 100000
  master list distance cutoff = 16.5
  ghost atom cutoff = 16.5
  binsize = 8.25, bins = 72 72 72
  1 neighbor lists, perpetual/occasional/extra = 1 0 0
  (1) pair lj/cut, perpetual
      attributes: half, newton on
      pair build: half/bin/newton
      stencil: half/bin/3d
      bin: standard
Per MPI rank memory allocation (min/avg/max) = 8.956 | 8.956 | 8.956 Mbytes
   Step         TotEng         KinEng         PotEng        Density          Temp          Press     
         0   4992013.9      11921.75       4980092.1      0.002564306    500            6604.9415    
      1000   11753.327      11921.75      -168.4224       0.002564306    500            2.6322457    
Loop time of 0.463588 on 1 procs for 1000 steps with 8000 atoms

97.7% CPU use with 1 MPI tasks x 1 OpenMP threads

Minimization stats:
  Stopping criterion = max iterations
  Energy initial, next-to-last, final = 
      4980092.10447256  -168.311798932442  -168.422401310336
  Force two-norm initial, final = 78699787 0.33896794
  Force max component initial, final = 53055915 0.11425497
  Final line search alpha, max atom move = 0.76719128 0.087655415
  Iterations, force evaluations = 1000 1042

MPI task timing breakdown:
Section |  min time  |  avg time  |  max time  |%varavg| %total
---------------------------------------------------------------
Pair    | 0.084296   | 0.084296   | 0.084296   |   0.0 | 18.18
Bond    | 5.3e-05    | 5.3e-05    | 5.3e-05    |   0.0 |  0.01
Neigh   | 0.1007     | 0.1007     | 0.1007     |   0.0 | 21.72
Comm    | 0.030943   | 0.030943   | 0.030943   |   0.0 |  6.67
Output  | 0.011806   | 0.011806   | 0.011806   |   0.0 |  2.55
Modify  | 0          | 0          | 0          |   0.0 |  0.00
Other   |            | 0.2358     |            |       | 50.86

Nlocal:           8000 ave        8000 max        8000 min
Histogram: 1 0 0 0 0 0 0 0 0 0
Nghost:           1434 ave        1434 max        1434 min
Histogram: 1 0 0 0 0 0 0 0 0 0
Neighs:           2881 ave        2881 max        2881 min
Histogram: 1 0 0 0 0 0 0 0 0 0

Total # of neighbors = 2881
Ave neighs/atom = 0.360125
Ave special neighs/atom = 0
Neighbor list builds = 102
Dangerous builds = 0

fix 			balance all balance 1000 1.2 rcb # how to assign the domain to different processors
fix			    integrator all nve # set up F=ma integration

run						${Nsteps}
run						100000
Generated 0 of 0 mixed pair_coeff terms from geometric mixing rule
Per MPI rank memory allocation (min/avg/max) = 9.548 | 9.548 | 9.548 Mbytes
   Step         TotEng         KinEng         PotEng        Density          Temp          Press     
      1000   11753.327      11921.75      -168.4224       0.002564306    500            2.6322457    
      2000   11753.306      11777.147     -23.840874      0.002564306    493.93534      2.5973496    
      3000   11753.31       11774.996     -21.68627       0.002564306    493.84514      2.6049239    
      4000   11753.324      11780.696     -27.371991      0.002564306    494.08417      2.6038249    
      5000   11753.324      11779.047     -25.723108      0.002564306    494.01501      2.603516     
      6000   11753.31       11779.595     -26.285529      0.002564306    494.03801      2.5984953    
      7000   11753.307      11781.333     -28.026341      0.002564306    494.1109       2.5997896    
      8000   11753.313      11779.962     -26.649003      0.002564306    494.0534       2.6033252    
      9000   11753.319      11774.677     -21.357305      0.002564306    493.83173      2.6036712    
     10000   11753.322      11777.576     -24.254091      0.002564306    493.95332      2.6002078    
     11000   11753.322      11777.441     -24.11919       0.002564306    493.94767      2.601603     
     12000   11753.321      11776.485     -23.163831      0.002564306    493.90756      2.6006775    
     13000   11753.32       11775.01      -21.689399      0.002564306    493.84569      2.6079837    
     14000   11753.325      11778.16      -24.834906      0.002564306    493.97782      2.6001545    
     15000   11753.318      11777.423     -24.104068      0.002564306    493.94689      2.6004487    
     16000   11753.317      11779.276     -25.959158      0.002564306    494.02464      2.5978502    
     17000   11753.325      11776.376     -23.050641      0.002564306    493.903        2.6029377    
     18000   11753.319      11777.566     -24.247032      0.002564306    493.95293      2.6076247    
     19000   11753.321      11776.167     -22.845585      0.002564306    493.89422      2.6038244    
     20000   11753.327      11772.945     -19.617132      0.002564306    493.75909      2.6070355    
     21000   11753.327      11773.659     -20.331902      0.002564306    493.78905      2.6037391    
     22000   11753.329      11773.49      -20.161204      0.002564306    493.78196      2.6060487    
     23000   11753.325      11774.664     -21.33922       0.002564306    493.83119      2.6017886    
     24000   11753.321      11778.591     -25.270221      0.002564306    493.9959       2.5987676    
     25000   11753.315      11769.223     -15.908034      0.002564306    493.60299      2.6128185    
[...]
Histogram: 1 0 0 0 0 0 0 0 0 0
Nghost:             16 ave          16 max          16 min
Histogram: 1 0 0 0 0 0 0 0 0 0
Neighs:              0 ave           0 max           0 min
Histogram: 1 0 0 0 0 0 0 0 0 0

Total # of neighbors = 0
Ave neighs/atom = 0
Ave special neighs/atom = 0
Neighbor list builds = 50
Dangerous builds = 0
print                   "simulation done."
simulation done.










Total wall time: 0:00:00

thermo_style            custom step etotal ke pe density temp press # what to print
thermo                  1000 # print every 1000 timesteps
dump                    myDump all xyz 200 dump.xyz # save coordinates every 1000 timesteps

minimize 		1e-6 1e-6 1000 10000 # shift atom locations to minimize the potential energy of the system. Helps if we accidentally introduce atoms that are overlapping and repel each other very strongly.
Generated 0 of 0 mixed pair_coeff terms from geometric mixing rule
Neighbor list info ...
  update: every = 1 steps, delay = 0 steps, check = yes
  max neighbors/atom: 2000, page size: 100000
  master list distance cutoff = 16.5
  ghost atom cutoff = 16.5
  binsize = 8.25, bins = 72 72 72
  1 neighbor lists, perpetual/occasional/extra = 1 0 0
  (1) pair lj/cut, perpetual
      attributes: half, newton on
      pair build: half/bin/newton
      stencil: half/bin/3d
      bin: standard
Per MPI rank memory allocation (min/avg/max) = 8.819 | 8.819 | 8.819 Mbytes
   Step         TotEng         KinEng         PotEng        Density          Temp          Press     
         0   118.04008      118.04008      0              3.2053824e-05  400            0.026073426  
         1   118.04008      118.04008      0              3.2053824e-05  400            0.026073426  
Loop time of 0.00026 on 1 procs for 1 steps with 100 atoms

0.0% CPU use with 1 MPI tasks x 1 OpenMP threads

Minimization stats:
  Stopping criterion = search direction is not downhill
  Energy initial, next-to-last, final = 
                     0                  0                  0
  Force two-norm initial, final = 0 0
  Force max component initial, final = 0 0
  Final line search alpha, max atom move = 0 0
  Iterations, force evaluations = 1 0

MPI task timing breakdown:
Section |  min time  |  avg time  |  max time  |%varavg| %total
---------------------------------------------------------------
Pair    | 1e-06      | 1e-06      | 1e-06      |   0.0 |  0.38
Bond    | 0          | 0          | 0          |   0.0 |  0.00
Neigh   | 0          | 0          | 0          |   0.0 |  0.00
Comm    | 1e-06      | 1e-06      | 1e-06      |   0.0 |  0.38
Output  | 0          | 0          | 0          |   0.0 |  0.00
Modify  | 0          | 0          | 0          |   0.0 |  0.00
Other   |            | 0.000258   |            |       | 99.23

Nlocal:            100 ave         100 max         100 min
Histogram: 1 0 0 0 0 0 0 0 0 0
Nghost:             15 ave          15 max          15 min
Histogram: 1 0 0 0 0 0 0 0 0 0
Neighs:              0 ave           0 max           0 min
Histogram: 1 0 0 0 0 0 0 0 0 0

Total # of neighbors = 0
Ave neighs/atom = 0
Ave special neighs/atom = 0
Neighbor list builds = 0
Dangerous builds = 0

fix 			balance all balance 1000 1.2 rcb # how to assign the domain to different processors
fix			    integrator all nve # set up F=ma integration

run						${Nsteps}
run						50000
Generated 0 of 0 mixed pair_coeff terms from geometric mixing rule
Per MPI rank memory allocation (min/avg/max) = 8.718 | 8.718 | 8.718 Mbytes
   Step         TotEng         KinEng         PotEng        Density          Temp          Press     
         1   118.04008      118.04008      0              3.2053824e-05  400            0.026073426  
      1000   118.04008      118.04008      0              3.2053824e-05  400            0.026073426  
      2000   118.04008      118.04008      0              3.2053824e-05  400            0.026073426  
      3000   118.04008      118.04008      0              3.2053824e-05  400            0.026073426  
      4000   118.04008      118.04008      0              3.2053824e-05  400            0.026073426  
      5000   118.04008      118.04008      0              3.2053824e-05  400            0.026073426  
      6000   118.04008      118.04008      0              3.2053824e-05  400            0.026073426  
      7000   118.04008      118.04008      0              3.2053824e-05  400            0.026073426  
      8000   118.04008      118.04008      0              3.2053824e-05  400            0.026073426  
      9000   118.04008      118.04008      0              3.2053824e-05  400            0.026073426  
     10000   118.04008      118.04008      0              3.2053824e-05  400            0.026073426  
     11000   118.04008      118.04008      0              3.2053824e-05  400            0.026073426  
     12000   118.04008      118.04008      0              3.2053824e-05  400            0.026073426  
     13000   118.04008      118.04008      0              3.2053824e-05  400            0.026073426  
     14000   118.03995      118.04011     -0.00016277657  3.2053824e-05  400.00011      0.026073325  
     15000   118.03995      118.04025     -0.00030267421  3.2053824e-05  400.00058      0.026073263  
     16000   118.04008      118.04008      0              3.2053824e-05  400            0.026073426  
     17000   118.04008      118.04008      0              3.2053824e-05  400            0.026073426  
     18000   118.04008      118.04008      0              3.2053824e-05  400            0.026073426  
     19000   118.04008      118.04008      0              3.2053824e-05  400            0.026073426  
     20000   118.04008      118.04008      0              3.2053824e-05  400            0.026073426  
     21000   118.04008      118.04008      0              3.2053824e-05  400            0.026073426  
     22000   118.04008      118.04008      0              3.2053824e-05  400            0.026073426  
     23000   118.04008      118.04008      0              3.2053824e-05  400            0.026073426  
     24000   118.04008      118.04008      0              3.2053824e-05  400            0.026073426  
     25000   118.04008      118.04008      0              3.2053824e-05  400            0.026073426  
     26000   118.04008      118.04008      0              3.2053824e-05  400            0.026073426  
     27000   118.04008      118.04008      0              3.2053824e-05  400            0.026073426  
     28000   118.04008      118.04008      0              3.2053824e-05  400            0.026073426  
     29000   118.04008      118.04008      0              3.2053824e-05  400            0.026073426  
     30000   118.04008      118.04008      0              3.2053824e-05  400            0.026073426  
     31000   118.04008      118.04008      0              3.2053824e-05  400            0.026073426  
     32000   118.04008      118.04008      0              3.2053824e-05  400            0.026073426  
     33000   118.03995      118.04009     -0.00013951034  3.2053824e-05  400.00003      0.026073335  
     34000   118.03982      118.04055     -0.00072738538  3.2053824e-05  400.00158      0.026073047  
     35000   118.03981      118.2628      -0.22298286     3.2053824e-05  400.75473      0.026063019  
     36000   118.03982      118.0401      -0.00028060752  3.2053824e-05  400.00007      0.026073244  
     37000   118.04008      118.04008      0              3.2053824e-05  400            0.026073426  
     38000   118.04008      118.04008      0              3.2053824e-05  400            0.026073426  
     39000   118.04008      118.04008      0              3.2053824e-05  400            0.026073426  
     40000   118.03995      118.04011     -0.00016016048  3.2053824e-05  400.0001       0.026073326  
     41000   118.03995      118.0401      -0.00015319839  3.2053824e-05  400.00008      0.026073329  
     42000   118.04008      118.04008      0              3.2053824e-05  400            0.026073426  
     43000   118.04008      118.04008      0              3.2053824e-05  400            0.026073426  
     44000   118.04008      118.04008      0              3.2053824e-05  400            0.026073426  
     45000   118.04008      118.04008      0              3.2053824e-05  400            0.026073426  
     46000   118.04008      118.04008      0              3.2053824e-05  400            0.026073426  
     47000   118.04008      118.04008      0              3.2053824e-05  400            0.026073426  
     48000   118.04008      118.04008      0              3.2053824e-05  400            0.026073426  
     49000   118.04008      118.04008      0              3.2053824e-05  400            0.026073426  
     50000   118.04008      118.04008      0              3.2053824e-05  400            0.026073426  
     50001   118.04008      118.04008      0              3.2053824e-05  400            0.026073426  
Loop time of 0.282201 on 1 procs for 50000 steps with 100 atoms

Performance: 15308.238 ns/day, 0.002 hours/ns, 177178.678 timesteps/s, 17.718 Matom-step/s
88.6% CPU use with 1 MPI tasks x 1 OpenMP threads

MPI task timing breakdown:
Section |  min time  |  avg time  |  max time  |%varavg| %total
---------------------------------------------------------------
Pair    | 0.006868   | 0.006868   | 0.006868   |   0.0 |  2.43
Bond    | 0.002173   | 0.002173   | 0.002173   |   0.0 |  0.77
Neigh   | 0.10009    | 0.10009    | 0.10009    |   0.0 | 35.47
Comm    | 0.040084   | 0.040084   | 0.040084   |   0.0 | 14.20
Output  | 0.046994   | 0.046994   | 0.046994   |   0.0 | 16.65
Modify  | 0.046012   | 0.046012   | 0.046012   |   0.0 | 16.30
Other   |            | 0.03998    |            |       | 14.17

Nlocal:            100 ave         100 max         100 min
Histogram: 1 0 0 0 0 0 0 0 0 0
Nghost:             14 ave          14 max          14 min
Histogram: 1 0 0 0 0 0 0 0 0 0
Neighs:              0 ave           0 max           0 min
Histogram: 1 0 0 0 0 0 0 0 0 0

Total # of neighbors = 0
Ave neighs/atom = 0
Ave special neighs/atom = 0
Neighbor list builds = 650
Dangerous builds = 0
print                   "simulation done."
simulation done.










Total wall time: 0:00:00
thermo_style            custom step etotal ke pe density temp press # what to print
thermo                  1000 # print every 1000 timesteps
dump                    myDump all xyz 200 dump.xyz # save coordinates every 1000 timesteps

minimize 		1e-6 1e-6 1000 10000 # shift atom locations to minimize the potential energy of the system. Helps if we accidentally introduce atoms that are overlapping and repel each other very strongly.
Generated 0 of 0 mixed pair_coeff terms from geometric mixing rule
Neighbor list info ...
  update: every = 1 steps, delay = 0 steps, check = yes
  max neighbors/atom: 2000, page size: 100000
  master list distance cutoff = 16.5
  ghost atom cutoff = 16.5
  binsize = 8.25, bins = 72 72 72
  1 neighbor lists, perpetual/occasional/extra = 1 0 0
  (1) pair lj/cut, perpetual
      attributes: half, newton on
      pair build: half/bin/newton
      stencil: half/bin/3d
      bin: standard
Per MPI rank memory allocation (min/avg/max) = 8.819 | 8.819 | 8.819 Mbytes
   Step         TotEng         KinEng         PotEng        Density          Temp          Press     
         0   442.65029      442.65029      0              3.2053824e-05  1500           0.097775346  
         1   442.65029      442.65029      0              3.2053824e-05  1500           0.097775346  
Loop time of 0.000831 on 1 procs for 1 steps with 100 atoms

0.0% CPU use with 1 MPI tasks x 1 OpenMP threads

Minimization stats:
  Stopping criterion = search direction is not downhill
  Energy initial, next-to-last, final = 
                     0                  0                  0
  Force two-norm initial, final = 0 0
  Force max component initial, final = 0 0
  Final line search alpha, max atom move = 0 0
  Iterations, force evaluations = 1 0

MPI task timing breakdown:
Section |  min time  |  avg time  |  max time  |%varavg| %total
---------------------------------------------------------------
Pair    | 1e-06      | 1e-06      | 1e-06      |   0.0 |  0.12
Bond    | 1e-06      | 1e-06      | 1e-06      |   0.0 |  0.12
Neigh   | 0          | 0          | 0          |   0.0 |  0.00
Comm    | 3e-06      | 3e-06      | 3e-06      |   0.0 |  0.36
Output  | 0          | 0          | 0          |   0.0 |  0.00
Modify  | 0          | 0          | 0          |   0.0 |  0.00
Other   |            | 0.000826   |            |       | 99.40

Nlocal:            100 ave         100 max         100 min
Histogram: 1 0 0 0 0 0 0 0 0 0
Nghost:             15 ave          15 max          15 min
Histogram: 1 0 0 0 0 0 0 0 0 0
Neighs:              0 ave           0 max           0 min
Histogram: 1 0 0 0 0 0 0 0 0 0

Total # of neighbors = 0
Ave neighs/atom = 0
Ave special neighs/atom = 0
Neighbor list builds = 0
Dangerous builds = 0

fix 			balance all balance 1000 1.2 rcb # how to assign the domain to different processors
fix			    integrator all nve # set up F=ma integration

run						${Nsteps}
run						50000
Generated 0 of 0 mixed pair_coeff terms from geometric mixing rule
Per MPI rank memory allocation (min/avg/max) = 8.718 | 8.718 | 8.718 Mbytes
   Step         TotEng         KinEng         PotEng        Density          Temp          Press     
         1   442.65029      442.65029      0              3.2053824e-05  1500           0.097775346  
      1000   442.65029      442.65029      0              3.2053824e-05  1500           0.097775346  
      2000   442.65029      442.65029      0              3.2053824e-05  1500           0.097775346  
      3000   442.65029      442.65029      0              3.2053824e-05  1500           0.097775346  
      4000   442.65029      442.65029      0              3.2053824e-05  1500           0.097775346  
      5000   442.65029      442.65029      0              3.2053824e-05  1500           0.097775346  
      6000   442.65029      442.65029      0              3.2053824e-05  1500           0.097775346  
      7000   442.65029      442.65029      0              3.2053824e-05  1500           0.097775346  
      8000   442.65016      442.6503      -0.00014157556  3.2053824e-05  1500           0.097775254  
      9000   442.65029      442.65029      0              3.2053824e-05  1500           0.097775346  
     10000   442.65029      442.65029      0              3.2053824e-05  1500           0.097775346  
     11000   442.65029      442.65029      0              3.2053824e-05  1500           0.097775346  
     12000   442.65029      442.65029      0              3.2053824e-05  1500           0.097775346  
     13000   442.65029      442.65029      0              3.2053824e-05  1500           0.097775346  
     14000   442.65029      442.65029      0              3.2053824e-05  1500           0.097775346  
     15000   442.65029      442.65029      0              3.2053824e-05  1500           0.097775346  
     16000   442.65029      442.65029      0              3.2053824e-05  1500           0.097775346  
     17000   442.65016      442.65029     -0.00013076808  3.2053824e-05  1500           0.097775259  
     18000   442.64987      441.45728      1.1925846      3.2053824e-05  1495.9573      0.10018114   
     19000   442.65029      442.65029      0              3.2053824e-05  1500           0.097775346  
     20000   442.65029      442.65029      0              3.2053824e-05  1500           0.097775346  
     21000   442.65016      442.65033     -0.00017156276  3.2053824e-05  1500.0001      0.097775241  
     22000   442.65029      442.65029      0              3.2053824e-05  1500           0.097775346  
     23000   442.65029      442.65029      0              3.2053824e-05  1500           0.097775346  
     24000   442.65029      442.65029      0              3.2053824e-05  1500           0.097775346  
     25000   442.65029      442.65029      0              3.2053824e-05  1500           0.097775346  
     26000   442.65029      442.65029      0              3.2053824e-05  1500           0.097775346  
     27000   442.65029      442.65029      0              3.2053824e-05  1500           0.097775346  
     28000   442.65029      442.65029      0              3.2053824e-05  1500           0.097775346  
     29000   442.65029      442.65029      0              3.2053824e-05  1500           0.097775346  
     30000   442.65029      442.65029      0              3.2053824e-05  1500           0.097775346  
     31000   442.65029      442.65029      0              3.2053824e-05  1500           0.097775346  
     32000   442.65029      442.65029      0              3.2053824e-05  1500           0.097775346  
     33000   442.65016      442.65045     -0.0002870684   3.2053824e-05  1500.0005      0.09777519   
     34000   442.65016      442.65735     -0.0071830904   3.2053824e-05  1500.0239      0.09777218   
     35000   442.65016      442.70338     -0.053219823    3.2053824e-05  1500.1799      0.098309896  
     36000   442.65016      442.65581     -0.0056447351   3.2053824e-05  1500.0187      0.097772846  
     37000   442.6499       442.66199     -0.012086549    3.2053824e-05  1500.0396      0.097770015  
     38000   442.65003      442.6518      -0.0017630646   3.2053824e-05  1500.0051      0.097774511  
     39000   442.65029      442.65029      0              3.2053824e-05  1500           0.097775346  
     40000   442.65029      442.65029      0              3.2053824e-05  1500           0.097775346  
     41000   442.65029      442.65029      0              3.2053824e-05  1500           0.097775346  
     42000   442.65029      442.65029      0              3.2053824e-05  1500           0.097775346  
     43000   442.65029      442.65029      0              3.2053824e-05  1500           0.097775346  
     44000   442.65029      442.65029      0              3.2053824e-05  1500           0.097775346  
     45000   442.65003      442.65038     -0.00034706474  3.2053824e-05  1500.0003      0.097775135  
     46000   442.65016      442.65029     -0.00013040249  3.2053824e-05  1500           0.09777526   
     47000   442.65003      442.68248     -0.032451441    3.2053824e-05  1500.1091      0.09776173   
     48000   442.65016      442.67989     -0.029724483    3.2053824e-05  1500.1003      0.097762842  
     49000   442.65016      442.65136     -0.0012012619   3.2053824e-05  1500.0036      0.097774787  
     50000   442.65016      442.65267     -0.0025094047   3.2053824e-05  1500.0081      0.097774213  
     50001   442.65016      442.65269     -0.0025297277   3.2053824e-05  1500.0081      0.097774204  
Loop time of 0.445825 on 1 procs for 50000 steps with 100 atoms

Performance: 9689.901 ns/day, 0.002 hours/ns, 112151.629 timesteps/s, 11.215 Matom-step/s
80.6% CPU use with 1 MPI tasks x 1 OpenMP threads

MPI task timing breakdown:
Section |  min time  |  avg time  |  max time  |%varavg| %total
---------------------------------------------------------------
Pair    | 0.007867   | 0.007867   | 0.007867   |   0.0 |  1.76
Bond    | 0.002218   | 0.002218   | 0.002218   |   0.0 |  0.50
Neigh   | 0.19493    | 0.19493    | 0.19493    |   0.0 | 43.72
Comm    | 0.043263   | 0.043263   | 0.043263   |   0.0 |  9.70
Output  | 0.053525   | 0.053525   | 0.053525   |   0.0 | 12.01
Modify  | 0.081648   | 0.081648   | 0.081648   |   0.0 | 18.31
Other   |            | 0.06237    |            |       | 13.99

Nlocal:            100 ave         100 max         100 min
Histogram: 1 0 0 0 0 0 0 0 0 0
Nghost:             23 ave          23 max          23 min
Histogram: 1 0 0 0 0 0 0 0 0 0
Neighs:              1 ave           1 max           1 min
Histogram: 1 0 0 0 0 0 0 0 0 0

Total # of neighbors = 1
Ave neighs/atom = 0.01
Ave special neighs/atom = 0
Neighbor list builds = 1200
Dangerous builds = 0
print                   "simulation done."
simulation done.










Total wall time: 0:00:00
