# Ar gas simulation

0 atoms
0 bonds
0 angles
0 dihedrals

1 atom types
1 bond types
0 angle types
0 dihedral types

0.0 591.5 xlo xhi
0.0 591.5 ylo yhi
0.0 591.5 zlo zhi

Masses

1 14.007 #N molar mass
