thermo_style            custom step etotal ke pe density temp press # what to print
thermo                  1000 # print every 1000 timesteps
dump                    myDump all xyz 1000 N2\dump.xyz # save coordinates every 1000 timesteps

minimize 		1e-6 1e-6 1000 10000 # shift atom locations to minimize the potential energy of the system. Helps if we accidentally introduce atoms that are overlapping and repel each other very strongly.
Generated 0 of 0 mixed pair_coeff terms from geometric mixing rule
Neighbor list info ...
  update: every = 1 steps, delay = 0 steps, check = yes
  max neighbors/atom: 2000, page size: 100000
  master list distance cutoff = 16.5
  ghost atom cutoff = 16.5
  binsize = 8.25, bins = 72 72 72
  1 neighbor lists, perpetual/occasional/extra = 1 0 0
  (1) pair lj/cut, perpetual
      attributes: half, newton on
      pair build: half/bin/newton
      stencil: half/bin/3d
      bin: standard
Per MPI rank memory allocation (min/avg/max) = 7.828 | 7.828 | 7.829 Mbytes
   Step         TotEng         KinEng         PotEng        Density          Temp          Press     
         0   132709.83      8941.5359      123768.3       0.0011239059   300            166.11464    
       114   8938.769       8941.5359     -2.7668741      0.0011239059   300            1.974312     
Loop time of 0.06383 on 4 procs for 114 steps with 10000 atoms

67.3% CPU use with 4 MPI tasks x 1 OpenMP threads

Minimization stats:
  Stopping criterion = energy tolerance
  Energy initial, next-to-last, final = 
      123768.295313109  -2.76687290752603  -2.76687410247567
  Force two-norm initial, final = 2550121.9 1.454202
  Force max component initial, final = 1725024 0.61583364
  Final line search alpha, max atom move = 0.000335792 0.00020679201
  Iterations, force evaluations = 114 452

MPI task timing breakdown:
Section |  min time  |  avg time  |  max time  |%varavg| %total
---------------------------------------------------------------
Pair    | 0.010385   | 0.010965   | 0.011515   |   0.4 | 17.18
Bond    | 0.007179   | 0.0074063  | 0.007653   |   0.2 | 11.60
Neigh   | 0.000844   | 0.000845   | 0.000847   |   0.0 |  1.32
Comm    | 0.023691   | 0.024521   | 0.025314   |   0.4 | 38.42
Output  | 0          | 0          | 0          |   0.0 |  0.00
Modify  | 0          | 0          | 0          |   0.0 |  0.00
Other   |            | 0.02009    |            |       | 31.48

Nlocal:           2500 ave        2532 max        2434 min
Histogram: 1 0 0 0 0 0 0 1 0 2
Nghost:         758.75 ave         799 max         727 min
Histogram: 1 0 1 0 0 1 0 0 0 1
Neighs:         1158.5 ave        1226 max        1061 min
Histogram: 1 0 0 0 1 0 0 0 1 1

Total # of neighbors = 4634
Ave neighs/atom = 0.4634
Ave special neighs/atom = 1
Neighbor list builds = 2
Dangerous builds = 0

fix 			balance all balance 1000 1.2 rcb # how to assign the domain to different processors
fix			    integrator all nve # set up F=ma integration

run						${Nsteps}
run						100000
Generated 0 of 0 mixed pair_coeff terms from geometric mixing rule
Per MPI rank memory allocation (min/avg/max) = 7.948 | 7.95 | 7.951 Mbytes
   Step         TotEng         KinEng         PotEng        Density          Temp          Press     
       114   8938.769       8941.5359     -2.7668741      0.0011239059   300            1.974312     
      1000   8999.9382      7759.3111      1240.6271      0.0011239059   260.33484      0.70935445   
      2000   8944.9349      8815.0119      129.92303      0.0011239059   295.75496      0.50969717   
      3000   8999.0441      7778.1808      1220.8632      0.0011239059   260.96795      1.5523486    
      4000   8966.8466      8396.4204      570.42616      0.0011239059   281.71068      1.1744685    
      5000   8975.6781      8223.6664      752.01168      0.0011239059   275.91456      0.17269803   
      6000   8983.482       8077.6076      905.87432      0.0011239059   271.0141       1.4254113    
      7000   8966.1035      8411.0458      555.05779      0.0011239059   282.20137      1.4447151    
      8000   8987.3492      7999.2345      988.11467      0.0011239059   268.38458      0.22319488   
      9000   8966.5162      8403.0091      563.50703      0.0011239059   281.93174      1.1526349    
     10000   8983.6911      8070.9426      912.74848      0.0011239059   270.79048      1.4485695    
     11000   8972.8872      8278.9841      693.90317      0.0011239059   277.77054      0.64377386   
     12000   8976.0013      8219.7619      756.23942      0.0011239059   275.78356      0.72509873   
     13000   8979.9918      8143.1629      836.82887      0.0011239059   273.21356      1.4229277    
     14000   8971.0227      8315.8207      655.20195      0.0011239059   279.00645      1.026537     
     15000   8981.9198      8105.5358      876.38395      0.0011239059   271.95112      0.49263172   
     16000   8971.4632      8307.7913      663.67186      0.0011239059   278.73706      1.2653137    
     17000   8980.1928      8139.5346      840.65819      0.0011239059   273.09183      1.2780603    
     18000   8974.0711      8255.6225      718.44865      0.0011239059   276.98672      0.51041917   
     19000   8977.4543      8191.9277      785.52654      0.0011239059   274.84968      1.0241257    
     20000   8976.6372      8208.7999      767.83735      0.0011239059   275.41577      1.3926573    
     21000   8974.6366      8241.8635      732.77308      0.0011239059   276.52509      0.6541308    
     22000   8979.4606      8154.1711      825.28954      0.0011239059   273.5829       0.90358703   
     23000   8972.6043      8284.7397      687.86454      0.0011239059   277.96365      1.2526729    
     24000   8980.0134      8140.9615      839.05199      0.0011239059   273.1397       0.88285553   
     25000   8973.5618      8267.1855      706.37626      0.0011239059   277.37468      0.91130021   
     26000   8978.0515      8180.227       797.82451      0.0011239059   274.45711      0.9744207    
     27000   8976.041       8219.1422      756.89882      0.0011239059   275.76276      1.1129151    
     28000   8975.819       8223.4639      752.35513      0.0011239059   275.90776      0.93947241   
     29000   8977.8075      8184.5127      793.29478      0.0011239059   274.6009       0.83119569   
     30000   8973.9291      8260.4618      713.46736      0.0011239059   277.14909      1.1360301    
     31000   8979.6231      8149.582       830.04113      0.0011239059   273.42893      0.99599015   
     32000   8972.9114      8277.7351      695.17627      0.0011239059   277.72863      0.88945677   
     33000   8979.1927      8158.4904      820.70234      0.0011239059   273.72782      0.96087003   
     34000   8975.3313      8231.3193      744.01201      0.0011239059   276.17132      1.0634866    
     35000   8975.6554      8226.6723      748.98315      0.0011239059   276.01541      1.0476626    
     36000   8978.0311      8180.1976      797.83351      0.0011239059   274.45612      0.78992775   
     37000   8974.2796      8250.7201      723.55949      0.0011239059   276.82224      1.0004476    
     38000   8979.0795      8161.8987      817.18078      0.0011239059   273.84217      1.2682584    
     39000   8973.6374      8264.9227      708.7147       0.0011239059   277.29876      0.69452948   
     40000   8978.1027      8178.1495      799.95322      0.0011239059   274.38741      0.85470569   
     41000   8975.8337      8224.4688      751.36491      0.0011239059   275.94148      1.4581718    
     42000   8976.4809      8208.8287      767.65222      0.0011239059   275.41673      0.66022      
     43000   8976.8193      8203.5316      773.28774      0.0011239059   275.23901      0.79597142   
     44000   8975.1794      8236.5301      738.64924      0.0011239059   276.34615      1.4264172    
     45000   8978.3626      8172.8315      805.53107      0.0011239059   274.20898      0.78792153   
     46000   8974.0327      8257.2725      716.76022      0.0011239059   277.04209      0.76210536   
     47000   8978.3388      8175.6238      802.71501      0.0011239059   274.30267      1.2840462    
     48000   8975.3183      8232.1446      743.17368      0.0011239059   276.19901      0.92825043   
     49000   8976.3834      8211.7677      764.61569      0.0011239059   275.51534      0.78261062   
     50000   8977.3058      8195.9174      781.38841      0.0011239059   274.98354      1.1718511    
     51000   8975.1887      8234.6889      740.49982      0.0011239059   276.28438      0.95208843   
     52000   8977.5183      8189.5594      787.95897      0.0011239059   274.77022      0.86294632   
     53000   8975.4183      8231.2068      744.21149      0.0011239059   276.16755      1.104021     
     54000   8977.1589      8197.1865      779.97235      0.0011239059   275.02612      0.93677194   
     55000   8975.9772      8219.2515      756.72571      0.0011239059   275.76643      0.90457604   
     56000   8976.7345      8207.015       769.71949      0.0011239059   275.35588      1.1301439    
     57000   8975.8922      8221.0216      754.87068      0.0011239059   275.82582      0.84085503   
     58000   8976.5185      8209.8029      766.71563      0.0011239059   275.44942      0.97342372   
     59000   8976.827       8205.1393      771.68776      0.0011239059   275.29295      1.1550489    
     60000   8975.6793      8224.7322      750.94704      0.0011239059   275.95032      0.76167781   
     61000   8976.9964      8200.9557      776.04068      0.0011239059   275.15258      1.0192299    
     62000   8975.9165      8222.2183      753.69817      0.0011239059   275.86597      1.1667725    
     63000   8977.427       8191.5096      785.91742      0.0011239059   274.83566      0.72139635   
     64000   8974.9597      8239.405       735.55462      0.0011239059   276.44261      1.0153088    
     65000   8977.2738      8196.5672      780.70662      0.0011239059   275.00534      1.2480248    
     66000   8976.5484      8206.7745      769.77385      0.0011239059   275.34781      0.60381956   
     67000   8975.5263      8228.3573      747.16902      0.0011239059   276.07194      1.1171283    
     68000   8977.3424      8194.3092      783.03316      0.0011239059   274.92959      1.1881446    
     69000   8975.2749      8231.1879      744.08701      0.0011239059   276.16691      0.63323903   
     70000   8977.7114      8187.6691      790.04238      0.0011239059   274.7068       1.1385576    
     71000   8975.1985      8234.6373      740.56119      0.0011239059   276.28265      1.107354     
     72000   8977.1582      8196.4136      780.74461      0.0011239059   275.00019      0.76833638   
     73000   8976.5288      8208.6913      767.83759      0.0011239059   275.41212      0.99664854   
     74000   8975.4297      8231.2471      744.18269      0.0011239059   276.1689       1.18849      
     75000   8977.5387      8188.4373      789.1014       0.0011239059   274.73258      0.76230792   
     76000   8975.4185      8230.9708      744.44765      0.0011239059   276.15963      0.98014626   
     77000   8977.2847      8196.4788      780.80591      0.0011239059   275.00238      1.1809838    
     78000   8975.6635      8224.1882      751.47532      0.0011239059   275.93206      0.76256339   
     79000   8976.52        8209.8697      766.65035      0.0011239059   275.45166      1.0580329    
     80000   8976.7289      8205.6955      771.03339      0.0011239059   275.31161      1.0537655    
     81000   8976.0211      8218.1812      757.83999      0.0011239059   275.73052      0.84195977   
     82000   8976.7114      8206.7778      769.9336       0.0011239059   275.34792      1.0502307    
     83000   8975.8944      8221.4405      754.45392      0.0011239059   275.83988      1.0281672    
     84000   8977.0013      8199.9983      777.00298      0.0011239059   275.12046      0.85135479   
     85000   8976.2198      8215.4859      760.73388      0.0011239059   275.64009      1.0417834    
     86000   8976.4552      8211.4707      764.98444      0.0011239059   275.50538      1.0611272    
     87000   8975.9046      8221.0891      754.81554      0.0011239059   275.82809      0.80449096   
     88000   8976.9447      8201.605       775.33979      0.0011239059   275.17437      1.0463599    
     89000   8976.1735      8218.0542      758.11925      0.0011239059   275.72626      1.1380941    
     90000   8975.9773      8219.3397      756.63765      0.0011239059   275.76939      0.69381009   
     91000   8977.2759      8195.2397      782.03616      0.0011239059   274.96081      1.0924274    
     92000   8975.672       8226.2406      749.4314       0.0011239059   276.00093      1.1930343    
     93000   8976.4906      8208.3582      768.13237      0.0011239059   275.40095      0.62598059   
     94000   8976.5783      8209.1312      767.44707      0.0011239059   275.42688      1.1146256    
     95000   8976.5916      8205.0707      771.52095      0.0011239059   275.29065      1.1706743    
     96000   8975.901       8220.954       754.94702      0.0011239059   275.82355      0.735967     
     97000   8976.7324      8204.3222      772.41015      0.0011239059   275.26554      0.96438072   
     98000   8976.4674      8210.6109      765.85651      0.0011239059   275.47653      1.20327      
     99000   8975.8099      8224.1079      751.70198      0.0011239059   275.92937      0.88786701   
    100000   8977.4048      8191.749       785.65576      0.0011239059   274.84369      0.74984139   
    100114   8976.6056      8205.399       771.20657      0.0011239059   275.30166      0.96551035   
Loop time of 12.5824 on 4 procs for 100000 steps with 10000 atoms

Performance: 686.673 ns/day, 0.035 hours/ns, 7947.604 timesteps/s, 79.476 Matom-step/s
74.6% CPU use with 4 MPI tasks x 1 OpenMP threads

MPI task timing breakdown:
Section |  min time  |  avg time  |  max time  |%varavg| %total
---------------------------------------------------------------
Pair    | 1.4022     | 1.5226     | 1.5813     |   5.7 | 12.10
Bond    | 1.0992     | 1.1267     | 1.1423     |   1.6 |  8.95
Neigh   | 0.8215     | 0.82498    | 0.82906    |   0.4 |  6.56
Comm    | 5.5856     | 5.6917     | 5.8023     |   3.2 | 45.24
Output  | 0.42228    | 0.45815    | 0.4929     |   3.9 |  3.64
Modify  | 1.6872     | 1.7257     | 1.7553     |   1.9 | 13.71
Other   |            | 1.233      |            |       |  9.80

Nlocal:           2500 ave        2565 max        2453 min
Histogram: 2 0 0 0 0 1 0 0 0 1
Nghost:          741.5 ave         782 max         707 min
Histogram: 1 0 1 0 0 1 0 0 0 1
Neighs:        1152.25 ave        1210 max        1086 min
Histogram: 1 0 1 0 0 0 0 0 1 1

Total # of neighbors = 4609
Ave neighs/atom = 0.4609
Ave special neighs/atom = 1
Neighbor list builds = 2038
Dangerous builds = 0
print                   "simulation done."
simulation done.










Total wall time: 0:00:12
thermo_style            custom step etotal ke pe density temp press # what to print
thermo                  1000 # print every 1000 timesteps
dump                    myDump all xyz 1000 N2\dump.xyz # save coordinates every 1000 timesteps

minimize 		1e-6 1e-6 1000 10000 # shift atom locations to minimize the potential energy of the system. Helps if we accidentally introduce atoms that are overlapping and repel each other very strongly.
Generated 0 of 0 mixed pair_coeff terms from geometric mixing rule
Neighbor list info ...
  update: every = 1 steps, delay = 0 steps, check = yes
  max neighbors/atom: 2000, page size: 100000
  master list distance cutoff = 16.5
  ghost atom cutoff = 16.5
  binsize = 8.25, bins = 72 72 72
  1 neighbor lists, perpetual/occasional/extra = 1 0 0
  (1) pair lj/cut, perpetual
      attributes: half, newton on
      pair build: half/bin/newton
      stencil: half/bin/3d
      bin: standard
Per MPI rank memory allocation (min/avg/max) = 7.828 | 7.828 | 7.829 Mbytes
   Step         TotEng         KinEng         PotEng        Density          Temp          Press     
         0   132709.83      8941.5359      123768.3       0.0011239059   300            166.11464    
       114   8938.769       8941.5359     -2.7668741      0.0011239059   300            1.974312     
Loop time of 0.0654877 on 4 procs for 114 steps with 10000 atoms

53.7% CPU use with 4 MPI tasks x 1 OpenMP threads

Minimization stats:
  Stopping criterion = energy tolerance
  Energy initial, next-to-last, final = 
      123768.295313109  -2.76687290752603  -2.76687410247567
  Force two-norm initial, final = 2550121.9 1.454202
  Force max component initial, final = 1725024 0.61583364
  Final line search alpha, max atom move = 0.000335792 0.00020679201
  Iterations, force evaluations = 114 452

MPI task timing breakdown:
Section |  min time  |  avg time  |  max time  |%varavg| %total
---------------------------------------------------------------
Pair    | 0.011229   | 0.011578   | 0.012177   |   0.3 | 17.68
Bond    | 0.007295   | 0.0074892  | 0.007685   |   0.2 | 11.44
Neigh   | 0.000826   | 0.000829   | 0.000832   |   0.0 |  1.27
Comm    | 0.024489   | 0.025055   | 0.0255     |   0.3 | 38.26
Output  | 0          | 0          | 0          |   0.0 |  0.00
Modify  | 0          | 0          | 0          |   0.0 |  0.00
Other   |            | 0.02054    |            |       | 31.36

Nlocal:           2500 ave        2532 max        2434 min
Histogram: 1 0 0 0 0 0 0 1 0 2
Nghost:         758.75 ave         799 max         727 min
Histogram: 1 0 1 0 0 1 0 0 0 1
Neighs:         1158.5 ave        1226 max        1061 min
Histogram: 1 0 0 0 1 0 0 0 1 1

Total # of neighbors = 4634
Ave neighs/atom = 0.4634
Ave special neighs/atom = 1
Neighbor list builds = 2
Dangerous builds = 0

fix 			balance all balance 1000 1.2 rcb # how to assign the domain to different processors
fix			    integrator all nve # set up F=ma integration

run						${Nsteps}
run						100000
Generated 0 of 0 mixed pair_coeff terms from geometric mixing rule
Per MPI rank memory allocation (min/avg/max) = 7.948 | 7.95 | 7.951 Mbytes
   Step         TotEng         KinEng         PotEng        Density          Temp          Press     
       114   8938.769       8941.5359     -2.7668741      0.0011239059   300            1.974312     
      1000   8999.9382      7759.3111      1240.6271      0.0011239059   260.33484      0.70935445   
      2000   8944.9349      8815.0119      129.92303      0.0011239059   295.75496      0.50969717   
      3000   8999.0441      7778.1808      1220.8632      0.0011239059   260.96795      1.5523486    
      4000   8966.8466      8396.4204      570.42616      0.0011239059   281.71068      1.1744685    
      5000   8975.6781      8223.6664      752.01168      0.0011239059   275.91456      0.17269803   
      6000   8983.482       8077.6076      905.87432      0.0011239059   271.0141       1.4254113    
      7000   8966.1035      8411.0458      555.05779      0.0011239059   282.20137      1.4447151    
      8000   8987.3492      7999.2345      988.11467      0.0011239059   268.38458      0.22319488   
      9000   8966.5162      8403.0091      563.50703      0.0011239059   281.93174      1.1526349    
     10000   8983.6911      8070.9426      912.74848      0.0011239059   270.79048      1.4485695    
     11000   8972.8872      8278.9841      693.90317      0.0011239059   277.77054      0.64377386   
     12000   8976.0013      8219.7619      756.23942      0.0011239059   275.78356      0.72509873   
     13000   8979.9918      8143.1629      836.82887      0.0011239059   273.21356      1.4229277    
     14000   8971.0227      8315.8207      655.20195      0.0011239059   279.00645      1.026537     
     15000   8981.9198      8105.5358      876.38395      0.0011239059   271.95112      0.49263172   
     16000   8971.4632      8307.7913      663.67186      0.0011239059   278.73706      1.2653137    
     17000   8980.1928      8139.5346      840.65819      0.0011239059   273.09183      1.2780603    
     18000   8974.0711      8255.6225      718.44865      0.0011239059   276.98672      0.51041917   
     19000   8977.4543      8191.9277      785.52654      0.0011239059   274.84968      1.0241257    
     20000   8976.6372      8208.7999      767.83735      0.0011239059   275.41577      1.3926573    
     21000   8974.6366      8241.8635      732.77308      0.0011239059   276.52509      0.6541308    
     22000   8979.4606      8154.1711      825.28954      0.0011239059   273.5829       0.90358703   
     23000   8972.6043      8284.7397      687.86454      0.0011239059   277.96365      1.2526729    
     24000   8980.0134      8140.9615      839.05199      0.0011239059   273.1397       0.88285553   
     25000   8973.5618      8267.1855      706.37626      0.0011239059   277.37468      0.91130021   
     26000   8978.0515      8180.227       797.82451      0.0011239059   274.45711      0.9744207    
     27000   8976.041       8219.1422      756.89882      0.0011239059   275.76276      1.1129151    
     28000   8975.819       8223.4639      752.35513      0.0011239059   275.90776      0.93947241   
     29000   8977.8075      8184.5127      793.29478      0.0011239059   274.6009       0.83119569   
     30000   8973.9291      8260.4618      713.46736      0.0011239059   277.14909      1.1360301    
     31000   8979.6231      8149.582       830.04113      0.0011239059   273.42893      0.99599015   
     32000   8972.9114      8277.7351      695.17627      0.0011239059   277.72863      0.88945677   
     33000   8979.1927      8158.4904      820.70234      0.0011239059   273.72782      0.96087003   
     34000   8975.3313      8231.3193      744.01201      0.0011239059   276.17132      1.0634866    
     35000   8975.6554      8226.6723      748.98315      0.0011239059   276.01541      1.0476626    
     36000   8978.0311      8180.1976      797.83351      0.0011239059   274.45612      0.78992775   
     37000   8974.2796      8250.7201      723.55949      0.0011239059   276.82224      1.0004476    
     38000   8979.0795      8161.8987      817.18078      0.0011239059   273.84217      1.2682584    
     39000   8973.6374      8264.9227      708.7147       0.0011239059   277.29876      0.69452948   
     40000   8978.1027      8178.1495      799.95322      0.0011239059   274.38741      0.85470569   
     41000   8975.8337      8224.4688      751.36491      0.0011239059   275.94148      1.4581718    
     42000   8976.4809      8208.8287      767.65222      0.0011239059   275.41673      0.66022      
     43000   8976.8193      8203.5316      773.28774      0.0011239059   275.23901      0.79597142   
     44000   8975.1794      8236.5301      738.64924      0.0011239059   276.34615      1.4264172    
     45000   8978.3626      8172.8315      805.53107      0.0011239059   274.20898      0.78792153   
     46000   8974.0327      8257.2725      716.76022      0.0011239059   277.04209      0.76210536   
     47000   8978.3388      8175.6238      802.71501      0.0011239059   274.30267      1.2840462    
     48000   8975.3183      8232.1446      743.17368      0.0011239059   276.19901      0.92825043   
     49000   8976.3834      8211.7677      764.61569      0.0011239059   275.51534      0.78261062   
     50000   8977.3058      8195.9174      781.38841      0.0011239059   274.98354      1.1718511    
     51000   8975.1887      8234.6889      740.49982      0.0011239059   276.28438      0.95208843   
     52000   8977.5183      8189.5594      787.95897      0.0011239059   274.77022      0.86294632   
     53000   8975.4183      8231.2068      744.21149      0.0011239059   276.16755      1.104021     
     54000   8977.1589      8197.1865      779.97235      0.0011239059   275.02612      0.93677194   
     55000   8975.9772      8219.2515      756.72571      0.0011239059   275.76643      0.90457604   
     56000   8976.7345      8207.015       769.71949      0.0011239059   275.35588      1.1301439    
     57000   8975.8922      8221.0216      754.87068      0.0011239059   275.82582      0.84085503   
     58000   8976.5185      8209.8029      766.71563      0.0011239059   275.44942      0.97342372   
     59000   8976.827       8205.1393      771.68776      0.0011239059   275.29295      1.1550489    
     60000   8975.6793      8224.7322      750.94704      0.0011239059   275.95032      0.76167781   
     61000   8976.9964      8200.9557      776.04068      0.0011239059   275.15258      1.0192299    
     62000   8975.9165      8222.2183      753.69817      0.0011239059   275.86597      1.1667725    
     63000   8977.427       8191.5096      785.91742      0.0011239059   274.83566      0.72139635   
     64000   8974.9597      8239.405       735.55462      0.0011239059   276.44261      1.0153088    
     65000   8977.2738      8196.5672      780.70662      0.0011239059   275.00534      1.2480248    
     66000   8976.5484      8206.7745      769.77385      0.0011239059   275.34781      0.60381956   
     67000   8975.5263      8228.3573      747.16902      0.0011239059   276.07194      1.1171283    
     68000   8977.3424      8194.3092      783.03316      0.0011239059   274.92959      1.1881446    
     69000   8975.2749      8231.1879      744.08701      0.0011239059   276.16691      0.63323903   
     70000   8977.7114      8187.6691      790.04238      0.0011239059   274.7068       1.1385576    
     71000   8975.1985      8234.6373      740.56119      0.0011239059   276.28265      1.107354     
     72000   8977.1582      8196.4136      780.74461      0.0011239059   275.00019      0.76833638   
     73000   8976.5288      8208.6913      767.83759      0.0011239059   275.41212      0.99664854   
     74000   8975.4297      8231.2471      744.18269      0.0011239059   276.1689       1.18849      
     75000   8977.5387      8188.4373      789.1014       0.0011239059   274.73258      0.76230792   
     76000   8975.4185      8230.9708      744.44765      0.0011239059   276.15963      0.98014626   
     77000   8977.2847      8196.4788      780.80591      0.0011239059   275.00238      1.1809838    
     78000   8975.6635      8224.1882      751.47532      0.0011239059   275.93206      0.76256339   
     79000   8976.52        8209.8697      766.65035      0.0011239059   275.45166      1.0580329    
     80000   8976.7289      8205.6955      771.03339      0.0011239059   275.31161      1.0537655    
     81000   8976.0211      8218.1812      757.83999      0.0011239059   275.73052      0.84195977   
     82000   8976.7114      8206.7778      769.9336       0.0011239059   275.34792      1.0502307    
     83000   8975.8944      8221.4405      754.45392      0.0011239059   275.83988      1.0281672    
     84000   8977.0013      8199.9983      777.00298      0.0011239059   275.12046      0.85135479   
     85000   8976.2198      8215.4859      760.73388      0.0011239059   275.64009      1.0417834    
     86000   8976.4552      8211.4707      764.98444      0.0011239059   275.50538      1.0611272    
     87000   8975.9046      8221.0891      754.81554      0.0011239059   275.82809      0.80449096   
     88000   8976.9447      8201.605       775.33979      0.0011239059   275.17437      1.0463599    
     89000   8976.1735      8218.0542      758.11925      0.0011239059   275.72626      1.1380941    
     90000   8975.9773      8219.3397      756.63765      0.0011239059   275.76939      0.69381009   
     91000   8977.2759      8195.2397      782.03616      0.0011239059   274.96081      1.0924274    
     92000   8975.672       8226.2406      749.4314       0.0011239059   276.00093      1.1930343    
     93000   8976.4906      8208.3582      768.13237      0.0011239059   275.40095      0.62598059   
     94000   8976.5783      8209.1312      767.44707      0.0011239059   275.42688      1.1146256    
     95000   8976.5916      8205.0707      771.52095      0.0011239059   275.29065      1.1706743    
     96000   8975.901       8220.954       754.94702      0.0011239059   275.82355      0.735967     
     97000   8976.7324      8204.3222      772.41015      0.0011239059   275.26554      0.96438072   
     98000   8976.4674      8210.6109      765.85651      0.0011239059   275.47653      1.20327      
     99000   8975.8099      8224.1079      751.70198      0.0011239059   275.92937      0.88786701   
    100000   8977.4048      8191.749       785.65576      0.0011239059   274.84369      0.74984139   
    100114   8976.6056      8205.399       771.20657      0.0011239059   275.30166      0.96551035   
Loop time of 12.0197 on 4 procs for 100000 steps with 10000 atoms

Performance: 718.818 ns/day, 0.033 hours/ns, 8319.650 timesteps/s, 83.197 Matom-step/s
74.0% CPU use with 4 MPI tasks x 1 OpenMP threads

MPI task timing breakdown:
Section |  min time  |  avg time  |  max time  |%varavg| %total
---------------------------------------------------------------
Pair    | 1.4003     | 1.4244     | 1.4422     |   1.5 | 11.85
Bond    | 1.0915     | 1.119      | 1.1332     |   1.6 |  9.31
Neigh   | 0.80056    | 0.80083    | 0.80105    |   0.0 |  6.66
Comm    | 5.308      | 5.3747     | 5.4255     |   1.8 | 44.72
Output  | 0.39698    | 0.43191    | 0.46624    |   4.0 |  3.59
Modify  | 1.6665     | 1.6974     | 1.7153     |   1.5 | 14.12
Other   |            | 1.172      |            |       |  9.75

Nlocal:           2500 ave        2565 max        2453 min
Histogram: 2 0 0 0 0 1 0 0 0 1
Nghost:          741.5 ave         782 max         707 min
Histogram: 1 0 1 0 0 1 0 0 0 1
Neighs:        1152.25 ave        1210 max        1086 min
Histogram: 1 0 1 0 0 0 0 0 1 1

Total # of neighbors = 4609
Ave neighs/atom = 0.4609
Ave special neighs/atom = 1
Neighbor list builds = 2038
Dangerous builds = 0
print                   "simulation done."
simulation done.










Total wall time: 0:00:12
thermo_style            custom step etotal ke pe density temp press # what to print
thermo                  1000 # print every 1000 timesteps
dump                    myDump all xyz 1000 N2\dump.xyz # save coordinates every 1000 timesteps

minimize 		1e-6 1e-6 1000 10000 # shift atom locations to minimize the potential energy of the system. Helps if we accidentally introduce atoms that are overlapping and repel each other very strongly.
Generated 0 of 0 mixed pair_coeff terms from geometric mixing rule
Neighbor list info ...
  update: every = 1 steps, delay = 0 steps, check = yes
  max neighbors/atom: 2000, page size: 100000
  master list distance cutoff = 16.5
  ghost atom cutoff = 16.5
  binsize = 8.25, bins = 72 72 72
  1 neighbor lists, perpetual/occasional/extra = 1 0 0
  (1) pair lj/cut, perpetual
      attributes: half, newton on
      pair build: half/bin/newton
      stencil: half/bin/3d
      bin: standard
Per MPI rank memory allocation (min/avg/max) = 7.828 | 7.828 | 7.829 Mbytes
   Step         TotEng         KinEng         PotEng        Density          Temp          Press     
         0   132709.83      8941.5359      123768.3       0.0011239059   300            166.11464    
       114   8938.769       8941.5359     -2.7668741      0.0011239059   300            1.974312     
Loop time of 0.062719 on 4 procs for 114 steps with 10000 atoms

74.7% CPU use with 4 MPI tasks x 1 OpenMP threads

Minimization stats:
  Stopping criterion = energy tolerance
  Energy initial, next-to-last, final = 
      123768.295313109  -2.76687290752603  -2.76687410247567
  Force two-norm initial, final = 2550121.9 1.454202
  Force max component initial, final = 1725024 0.61583364
  Final line search alpha, max atom move = 0.000335792 0.00020679201
  Iterations, force evaluations = 114 452

MPI task timing breakdown:
Section |  min time  |  avg time  |  max time  |%varavg| %total
---------------------------------------------------------------
Pair    | 0.010754   | 0.01102    | 0.011374   |   0.2 | 17.57
Bond    | 0.007235   | 0.0074527  | 0.007587   |   0.2 | 11.88
Neigh   | 0.000819   | 0.0008205  | 0.000822   |   0.0 |  1.31
Comm    | 0.023529   | 0.024071   | 0.024308   |   0.2 | 38.38
Output  | 0          | 0          | 0          |   0.0 |  0.00
Modify  | 0          | 0          | 0          |   0.0 |  0.00
Other   |            | 0.01935    |            |       | 30.86

Nlocal:           2500 ave        2532 max        2434 min
Histogram: 1 0 0 0 0 0 0 1 0 2
Nghost:         758.75 ave         799 max         727 min
Histogram: 1 0 1 0 0 1 0 0 0 1
Neighs:         1158.5 ave        1226 max        1061 min
Histogram: 1 0 0 0 1 0 0 0 1 1

Total # of neighbors = 4634
Ave neighs/atom = 0.4634
Ave special neighs/atom = 1
Neighbor list builds = 2
Dangerous builds = 0

fix 			balance all balance 1000 1.2 rcb # how to assign the domain to different processors
fix			    integrator all nve # set up F=ma integration

run						${Nsteps}
run						100000
Generated 0 of 0 mixed pair_coeff terms from geometric mixing rule
Per MPI rank memory allocation (min/avg/max) = 7.948 | 7.95 | 7.951 Mbytes
   Step         TotEng         KinEng         PotEng        Density          Temp          Press     
       114   8938.769       8941.5359     -2.7668741      0.0011239059   300            1.974312     
      1000   8999.9382      7759.3111      1240.6271      0.0011239059   260.33484      0.70935445   
      2000   8944.9349      8815.0119      129.92303      0.0011239059   295.75496      0.50969717   
      3000   8999.0441      7778.1808      1220.8632      0.0011239059   260.96795      1.5523486    
      4000   8966.8466      8396.4204      570.42616      0.0011239059   281.71068      1.1744685    
      5000   8975.6781      8223.6664      752.01168      0.0011239059   275.91456      0.17269803   
      6000   8983.482       8077.6076      905.87432      0.0011239059   271.0141       1.4254113    
      7000   8966.1035      8411.0458      555.05779      0.0011239059   282.20137      1.4447151    
      8000   8987.3492      7999.2345      988.11467      0.0011239059   268.38458      0.22319488   
      9000   8966.5162      8403.0091      563.50703      0.0011239059   281.93174      1.1526349    
     10000   8983.6911      8070.9426      912.74848      0.0011239059   270.79048      1.4485695    
     11000   8972.8872      8278.9841      693.90317      0.0011239059   277.77054      0.64377386   
     12000   8976.0013      8219.7619      756.23942      0.0011239059   275.78356      0.72509873   
     13000   8979.9918      8143.1629      836.82887      0.0011239059   273.21356      1.4229277    
     14000   8971.0227      8315.8207      655.20195      0.0011239059   279.00645      1.026537     
     15000   8981.9198      8105.5358      876.38395      0.0011239059   271.95112      0.49263172   
     16000   8971.4632      8307.7913      663.67186      0.0011239059   278.73706      1.2653137    
     17000   8980.1928      8139.5346      840.65819      0.0011239059   273.09183      1.2780603    
     18000   8974.0711      8255.6225      718.44865      0.0011239059   276.98672      0.51041917   
     19000   8977.4543      8191.9277      785.52654      0.0011239059   274.84968      1.0241257    
     20000   8976.6372      8208.7999      767.83735      0.0011239059   275.41577      1.3926573    
     21000   8974.6366      8241.8635      732.77308      0.0011239059   276.52509      0.6541308    
     22000   8979.4606      8154.1711      825.28954      0.0011239059   273.5829       0.90358703   
     23000   8972.6043      8284.7397      687.86454      0.0011239059   277.96365      1.2526729    
     24000   8980.0134      8140.9615      839.05199      0.0011239059   273.1397       0.88285553   
     25000   8973.5618      8267.1855      706.37626      0.0011239059   277.37468      0.91130021   
     26000   8978.0515      8180.227       797.82451      0.0011239059   274.45711      0.9744207    
     27000   8976.041       8219.1422      756.89882      0.0011239059   275.76276      1.1129151    
     28000   8975.819       8223.4639      752.35513      0.0011239059   275.90776      0.93947241   
     29000   8977.8075      8184.5127      793.29478      0.0011239059   274.6009       0.83119569   
     30000   8973.9291      8260.4618      713.46736      0.0011239059   277.14909      1.1360301    
     31000   8979.6231      8149.582       830.04113      0.0011239059   273.42893      0.99599015   
     32000   8972.9114      8277.7351      695.17627      0.0011239059   277.72863      0.88945677   
     33000   8979.1927      8158.4904      820.70234      0.0011239059   273.72782      0.96087003   
     34000   8975.3313      8231.3193      744.01201      0.0011239059   276.17132      1.0634866    
     35000   8975.6554      8226.6723      748.98315      0.0011239059   276.01541      1.0476626    
     36000   8978.0311      8180.1976      797.83351      0.0011239059   274.45612      0.78992775   
     37000   8974.2796      8250.7201      723.55949      0.0011239059   276.82224      1.0004476    
     38000   8979.0795      8161.8987      817.18078      0.0011239059   273.84217      1.2682584    
     39000   8973.6374      8264.9227      708.7147       0.0011239059   277.29876      0.69452948   
     40000   8978.1027      8178.1495      799.95322      0.0011239059   274.38741      0.85470569   
     41000   8975.8337      8224.4688      751.36491      0.0011239059   275.94148      1.4581718    
     42000   8976.4809      8208.8287      767.65222      0.0011239059   275.41673      0.66022      
     43000   8976.8193      8203.5316      773.28774      0.0011239059   275.23901      0.79597142   
     44000   8975.1794      8236.5301      738.64924      0.0011239059   276.34615      1.4264172    
     45000   8978.3626      8172.8315      805.53107      0.0011239059   274.20898      0.78792153   
     46000   8974.0327      8257.2725      716.76022      0.0011239059   277.04209      0.76210536   
     47000   8978.3388      8175.6238      802.71501      0.0011239059   274.30267      1.2840462    
     48000   8975.3183      8232.1446      743.17368      0.0011239059   276.19901      0.92825043   
     49000   8976.3834      8211.7677      764.61569      0.0011239059   275.51534      0.78261062   
     50000   8977.3058      8195.9174      781.38841      0.0011239059   274.98354      1.1718511    
     51000   8975.1887      8234.6889      740.49982      0.0011239059   276.28438      0.95208843   
     52000   8977.5183      8189.5594      787.95897      0.0011239059   274.77022      0.86294632   
     53000   8975.4183      8231.2068      744.21149      0.0011239059   276.16755      1.104021     
     54000   8977.1589      8197.1865      779.97235      0.0011239059   275.02612      0.93677194   
     55000   8975.9772      8219.2515      756.72571      0.0011239059   275.76643      0.90457604   
     56000   8976.7345      8207.015       769.71949      0.0011239059   275.35588      1.1301439    
     57000   8975.8922      8221.0216      754.87068      0.0011239059   275.82582      0.84085503   
     58000   8976.5185      8209.8029      766.71563      0.0011239059   275.44942      0.97342372   
     59000   8976.827       8205.1393      771.68776      0.0011239059   275.29295      1.1550489    
     60000   8975.6793      8224.7322      750.94704      0.0011239059   275.95032      0.76167781   
     61000   8976.9964      8200.9557      776.04068      0.0011239059   275.15258      1.0192299    
     62000   8975.9165      8222.2183      753.69817      0.0011239059   275.86597      1.1667725    
     63000   8977.427       8191.5096      785.91742      0.0011239059   274.83566      0.72139635   
     64000   8974.9597      8239.405       735.55462      0.0011239059   276.44261      1.0153088    
     65000   8977.2738      8196.5672      780.70662      0.0011239059   275.00534      1.2480248    
     66000   8976.5484      8206.7745      769.77385      0.0011239059   275.34781      0.60381956   
     67000   8975.5263      8228.3573      747.16902      0.0011239059   276.07194      1.1171283    
     68000   8977.3424      8194.3092      783.03316      0.0011239059   274.92959      1.1881446    
     69000   8975.2749      8231.1879      744.08701      0.0011239059   276.16691      0.63323903   
     70000   8977.7114      8187.6691      790.04238      0.0011239059   274.7068       1.1385576    
     71000   8975.1985      8234.6373      740.56119      0.0011239059   276.28265      1.107354     
     72000   8977.1582      8196.4136      780.74461      0.0011239059   275.00019      0.76833638   
     73000   8976.5288      8208.6913      767.83759      0.0011239059   275.41212      0.99664854   
     74000   8975.4297      8231.2471      744.18269      0.0011239059   276.1689       1.18849      
     75000   8977.5387      8188.4373      789.1014       0.0011239059   274.73258      0.76230792   
     76000   8975.4185      8230.9708      744.44765      0.0011239059   276.15963      0.98014626   
     77000   8977.2847      8196.4788      780.80591      0.0011239059   275.00238      1.1809838    
     78000   8975.6635      8224.1882      751.47532      0.0011239059   275.93206      0.76256339   
     79000   8976.52        8209.8697      766.65035      0.0011239059   275.45166      1.0580329    
     80000   8976.7289      8205.6955      771.03339      0.0011239059   275.31161      1.0537655    
     81000   8976.0211      8218.1812      757.83999      0.0011239059   275.73052      0.84195977   
     82000   8976.7114      8206.7778      769.9336       0.0011239059   275.34792      1.0502307    
     83000   8975.8944      8221.4405      754.45392      0.0011239059   275.83988      1.0281672    
     84000   8977.0013      8199.9983      777.00298      0.0011239059   275.12046      0.85135479   
     85000   8976.2198      8215.4859      760.73388      0.0011239059   275.64009      1.0417834    
     86000   8976.4552      8211.4707      764.98444      0.0011239059   275.50538      1.0611272    
     87000   8975.9046      8221.0891      754.81554      0.0011239059   275.82809      0.80449096   
     88000   8976.9447      8201.605       775.33979      0.0011239059   275.17437      1.0463599    
     89000   8976.1735      8218.0542      758.11925      0.0011239059   275.72626      1.1380941    
     90000   8975.9773      8219.3397      756.63765      0.0011239059   275.76939      0.69381009   
     91000   8977.2759      8195.2397      782.03616      0.0011239059   274.96081      1.0924274    
     92000   8975.672       8226.2406      749.4314       0.0011239059   276.00093      1.1930343    
     93000   8976.4906      8208.3582      768.13237      0.0011239059   275.40095      0.62598059   
     94000   8976.5783      8209.1312      767.44707      0.0011239059   275.42688      1.1146256    
     95000   8976.5916      8205.0707      771.52095      0.0011239059   275.29065      1.1706743    
     96000   8975.901       8220.954       754.94702      0.0011239059   275.82355      0.735967     
     97000   8976.7324      8204.3222      772.41015      0.0011239059   275.26554      0.96438072   
     98000   8976.4674      8210.6109      765.85651      0.0011239059   275.47653      1.20327      
     99000   8975.8099      8224.1079      751.70198      0.0011239059   275.92937      0.88786701   
    100000   8977.4048      8191.749       785.65576      0.0011239059   274.84369      0.74984139   
    100114   8976.6056      8205.399       771.20657      0.0011239059   275.30166      0.96551035   
Loop time of 12.2508 on 4 procs for 100000 steps with 10000 atoms

Performance: 705.259 ns/day, 0.034 hours/ns, 8162.724 timesteps/s, 81.627 Matom-step/s
73.4% CPU use with 4 MPI tasks x 1 OpenMP threads

MPI task timing breakdown:
Section |  min time  |  avg time  |  max time  |%varavg| %total
---------------------------------------------------------------
Pair    | 1.4162     | 1.4706     | 1.5549     |   4.3 | 12.00
Bond    | 1.0915     | 1.1422     | 1.1835     |   3.2 |  9.32
Neigh   | 0.79433    | 0.79536    | 0.79654    |   0.1 |  6.49
Comm    | 5.4518     | 5.5313     | 5.6159     |   2.6 | 45.15
Output  | 0.39782    | 0.43132    | 0.46401    |   3.8 |  3.52
Modify  | 1.6825     | 1.703      | 1.7234     |   1.4 | 13.90
Other   |            | 1.177      |            |       |  9.61

Nlocal:           2500 ave        2565 max        2453 min
Histogram: 2 0 0 0 0 1 0 0 0 1
Nghost:          741.5 ave         782 max         707 min
Histogram: 1 0 1 0 0 1 0 0 0 1
Neighs:        1152.25 ave        1210 max        1086 min
Histogram: 1 0 1 0 0 0 0 0 1 1

Total # of neighbors = 4609
Ave neighs/atom = 0.4609
Ave special neighs/atom = 1
Neighbor list builds = 2038
Dangerous builds = 0
print                   "simulation done."
simulation done.










Total wall time: 0:00:12
thermo_style            custom step etotal ke pe density temp press # what to print
thermo                  1000 # print every 1000 timesteps
dump                    myDump all xyz 1000 N2\dump.xyz # save coordinates every 1000 timesteps

minimize 		1e-6 1e-6 1000 10000 # shift atom locations to minimize the potential energy of the system. Helps if we accidentally introduce atoms that are overlapping and repel each other very strongly.
Generated 0 of 0 mixed pair_coeff terms from geometric mixing rule
Neighbor list info ...
  update: every = 1 steps, delay = 0 steps, check = yes
  max neighbors/atom: 2000, page size: 100000
  master list distance cutoff = 16.5
  ghost atom cutoff = 16.5
  binsize = 8.25, bins = 72 72 72
  1 neighbor lists, perpetual/occasional/extra = 1 0 0
  (1) pair lj/cut, perpetual
      attributes: half, newton on
      pair build: half/bin/newton
      stencil: half/bin/3d
      bin: standard
Per MPI rank memory allocation (min/avg/max) = 7.828 | 7.828 | 7.829 Mbytes
   Step         TotEng         KinEng         PotEng        Density          Temp          Press     
         0   132709.83      8941.5359      123768.3       0.0011239059   300            166.11464    
       114   8938.769       8941.5359     -2.7668741      0.0011239059   300            1.974312     
Loop time of 0.064752 on 4 procs for 114 steps with 10000 atoms

30.2% CPU use with 4 MPI tasks x 1 OpenMP threads

Minimization stats:
  Stopping criterion = energy tolerance
  Energy initial, next-to-last, final = 
      123768.295313109  -2.76687290752603  -2.76687410247567
  Force two-norm initial, final = 2550121.9 1.454202
  Force max component initial, final = 1725024 0.61583364
  Final line search alpha, max atom move = 0.000335792 0.00020679201
  Iterations, force evaluations = 114 452

MPI task timing breakdown:
Section |  min time  |  avg time  |  max time  |%varavg| %total
---------------------------------------------------------------
Pair    | 0.010782   | 0.011214   | 0.011688   |   0.4 | 17.32
Bond    | 0.007394   | 0.0074458  | 0.00756    |   0.1 | 11.50
Neigh   | 0.000811   | 0.00081225 | 0.000813   |   0.0 |  1.25
Comm    | 0.024884   | 0.025216   | 0.025508   |   0.2 | 38.94
Output  | 0          | 0          | 0          |   0.0 |  0.00
Modify  | 0          | 0          | 0          |   0.0 |  0.00
Other   |            | 0.02006    |            |       | 30.99

Nlocal:           2500 ave        2532 max        2434 min
Histogram: 1 0 0 0 0 0 0 1 0 2
Nghost:         758.75 ave         799 max         727 min
Histogram: 1 0 1 0 0 1 0 0 0 1
Neighs:         1158.5 ave        1226 max        1061 min
Histogram: 1 0 0 0 1 0 0 0 1 1

Total # of neighbors = 4634
Ave neighs/atom = 0.4634
Ave special neighs/atom = 1
Neighbor list builds = 2
Dangerous builds = 0

fix 			balance all balance 1000 1.2 rcb # how to assign the domain to different processors
fix			    integrator all nve # set up F=ma integration

run						${Nsteps}
run						100000
Generated 0 of 0 mixed pair_coeff terms from geometric mixing rule
Per MPI rank memory allocation (min/avg/max) = 7.948 | 7.95 | 7.951 Mbytes
   Step         TotEng         KinEng         PotEng        Density          Temp          Press     
       114   8938.769       8941.5359     -2.7668741      0.0011239059   300            1.974312     
      1000   8999.9382      7759.3111      1240.6271      0.0011239059   260.33484      0.70935445   
      2000   8944.9349      8815.0119      129.92303      0.0011239059   295.75496      0.50969717   
      3000   8999.0441      7778.1808      1220.8632      0.0011239059   260.96795      1.5523486    
      4000   8966.8466      8396.4204      570.42616      0.0011239059   281.71068      1.1744685    
      5000   8975.6781      8223.6664      752.01168      0.0011239059   275.91456      0.17269803   
      6000   8983.482       8077.6076      905.87432      0.0011239059   271.0141       1.4254113    
      7000   8966.1035      8411.0458      555.05779      0.0011239059   282.20137      1.4447151    
      8000   8987.3492      7999.2345      988.11467      0.0011239059   268.38458      0.22319488   
      9000   8966.5162      8403.0091      563.50703      0.0011239059   281.93174      1.1526349    
     10000   8983.6911      8070.9426      912.74848      0.0011239059   270.79048      1.4485695    
     11000   8972.8872      8278.9841      693.90317      0.0011239059   277.77054      0.64377386   
     12000   8976.0013      8219.7619      756.23942      0.0011239059   275.78356      0.72509873   
     13000   8979.9918      8143.1629      836.82887      0.0011239059   273.21356      1.4229277    
     14000   8971.0227      8315.8207      655.20195      0.0011239059   279.00645      1.026537     
     15000   8981.9198      8105.5358      876.38395      0.0011239059   271.95112      0.49263172   
     16000   8971.4632      8307.7913      663.67186      0.0011239059   278.73706      1.2653137    
     17000   8980.1928      8139.5346      840.65819      0.0011239059   273.09183      1.2780603    
     18000   8974.0711      8255.6225      718.44865      0.0011239059   276.98672      0.51041917   
     19000   8977.4543      8191.9277      785.52654      0.0011239059   274.84968      1.0241257    
     20000   8976.6372      8208.7999      767.83735      0.0011239059   275.41577      1.3926573    
     21000   8974.6366      8241.8635      732.77308      0.0011239059   276.52509      0.6541308    
     22000   8979.4606      8154.1711      825.28954      0.0011239059   273.5829       0.90358703   
     23000   8972.6043      8284.7397      687.86454      0.0011239059   277.96365      1.2526729    
     24000   8980.0134      8140.9615      839.05199      0.0011239059   273.1397       0.88285553   
     25000   8973.5618      8267.1855      706.37626      0.0011239059   277.37468      0.91130021   
     26000   8978.0515      8180.227       797.82451      0.0011239059   274.45711      0.9744207    
     27000   8976.041       8219.1422      756.89882      0.0011239059   275.76276      1.1129151    
     28000   8975.819       8223.4639      752.35513      0.0011239059   275.90776      0.93947241   
     29000   8977.8075      8184.5127      793.29478      0.0011239059   274.6009       0.83119569   
     30000   8973.9291      8260.4618      713.46736      0.0011239059   277.14909      1.1360301    
     31000   8979.6231      8149.582       830.04113      0.0011239059   273.42893      0.99599015   
     32000   8972.9114      8277.7351      695.17627      0.0011239059   277.72863      0.88945677   
     33000   8979.1927      8158.4904      820.70234      0.0011239059   273.72782      0.96087003   
     34000   8975.3313      8231.3193      744.01201      0.0011239059   276.17132      1.0634866    
     35000   8975.6554      8226.6723      748.98315      0.0011239059   276.01541      1.0476626    
     36000   8978.0311      8180.1976      797.83351      0.0011239059   274.45612      0.78992775   
     37000   8974.2796      8250.7201      723.55949      0.0011239059   276.82224      1.0004476    
     38000   8979.0795      8161.8987      817.18078      0.0011239059   273.84217      1.2682584    
     39000   8973.6374      8264.9227      708.7147       0.0011239059   277.29876      0.69452948   
     40000   8978.1027      8178.1495      799.95322      0.0011239059   274.38741      0.85470569   
     41000   8975.8337      8224.4688      751.36491      0.0011239059   275.94148      1.4581718    
     42000   8976.4809      8208.8287      767.65222      0.0011239059   275.41673      0.66022      
     43000   8976.8193      8203.5316      773.28774      0.0011239059   275.23901      0.79597142   
     44000   8975.1794      8236.5301      738.64924      0.0011239059   276.34615      1.4264172    
     45000   8978.3626      8172.8315      805.53107      0.0011239059   274.20898      0.78792153   
     46000   8974.0327      8257.2725      716.76022      0.0011239059   277.04209      0.76210536   
     47000   8978.3388      8175.6238      802.71501      0.0011239059   274.30267      1.2840462    
     48000   8975.3183      8232.1446      743.17368      0.0011239059   276.19901      0.92825043   
     49000   8976.3834      8211.7677      764.61569      0.0011239059   275.51534      0.78261062   
     50000   8977.3058      8195.9174      781.38841      0.0011239059   274.98354      1.1718511    
     51000   8975.1887      8234.6889      740.49982      0.0011239059   276.28438      0.95208843   
     52000   8977.5183      8189.5594      787.95897      0.0011239059   274.77022      0.86294632   
     53000   8975.4183      8231.2068      744.21149      0.0011239059   276.16755      1.104021     
     54000   8977.1589      8197.1865      779.97235      0.0011239059   275.02612      0.93677194   
     55000   8975.9772      8219.2515      756.72571      0.0011239059   275.76643      0.90457604   
     56000   8976.7345      8207.015       769.71949      0.0011239059   275.35588      1.1301439    
     57000   8975.8922      8221.0216      754.87068      0.0011239059   275.82582      0.84085503   
     58000   8976.5185      8209.8029      766.71563      0.0011239059   275.44942      0.97342372   
     59000   8976.827       8205.1393      771.68776      0.0011239059   275.29295      1.1550489    
     60000   8975.6793      8224.7322      750.94704      0.0011239059   275.95032      0.76167781   
     61000   8976.9964      8200.9557      776.04068      0.0011239059   275.15258      1.0192299    
     62000   8975.9165      8222.2183      753.69817      0.0011239059   275.86597      1.1667725    
     63000   8977.427       8191.5096      785.91742      0.0011239059   274.83566      0.72139635   
     64000   8974.9597      8239.405       735.55462      0.0011239059   276.44261      1.0153088    
     65000   8977.2738      8196.5672      780.70662      0.0011239059   275.00534      1.2480248    
     66000   8976.5484      8206.7745      769.77385      0.0011239059   275.34781      0.60381956   
     67000   8975.5263      8228.3573      747.16902      0.0011239059   276.07194      1.1171283    
     68000   8977.3424      8194.3092      783.03316      0.0011239059   274.92959      1.1881446    
     69000   8975.2749      8231.1879      744.08701      0.0011239059   276.16691      0.63323903   
     70000   8977.7114      8187.6691      790.04238      0.0011239059   274.7068       1.1385576    
     71000   8975.1985      8234.6373      740.56119      0.0011239059   276.28265      1.107354     
     72000   8977.1582      8196.4136      780.74461      0.0011239059   275.00019      0.76833638   
     73000   8976.5288      8208.6913      767.83759      0.0011239059   275.41212      0.99664854   
     74000   8975.4297      8231.2471      744.18269      0.0011239059   276.1689       1.18849      
     75000   8977.5387      8188.4373      789.1014       0.0011239059   274.73258      0.76230792   
     76000   8975.4185      8230.9708      744.44765      0.0011239059   276.15963      0.98014626   
     77000   8977.2847      8196.4788      780.80591      0.0011239059   275.00238      1.1809838    
     78000   8975.6635      8224.1882      751.47532      0.0011239059   275.93206      0.76256339   
     79000   8976.52        8209.8697      766.65035      0.0011239059   275.45166      1.0580329    
     80000   8976.7289      8205.6955      771.03339      0.0011239059   275.31161      1.0537655    
     81000   8976.0211      8218.1812      757.83999      0.0011239059   275.73052      0.84195977   
     82000   8976.7114      8206.7778      769.9336       0.0011239059   275.34792      1.0502307    
     83000   8975.8944      8221.4405      754.45392      0.0011239059   275.83988      1.0281672    
     84000   8977.0013      8199.9983      777.00298      0.0011239059   275.12046      0.85135479   
     85000   8976.2198      8215.4859      760.73388      0.0011239059   275.64009      1.0417834    
     86000   8976.4552      8211.4707      764.98444      0.0011239059   275.50538      1.0611272    
     87000   8975.9046      8221.0891      754.81554      0.0011239059   275.82809      0.80449096   
     88000   8976.9447      8201.605       775.33979      0.0011239059   275.17437      1.0463599    
     89000   8976.1735      8218.0542      758.11925      0.0011239059   275.72626      1.1380941    
     90000   8975.9773      8219.3397      756.63765      0.0011239059   275.76939      0.69381009   
     91000   8977.2759      8195.2397      782.03616      0.0011239059   274.96081      1.0924274    
     92000   8975.672       8226.2406      749.4314       0.0011239059   276.00093      1.1930343    
     93000   8976.4906      8208.3582      768.13237      0.0011239059   275.40095      0.62598059   
     94000   8976.5783      8209.1312      767.44707      0.0011239059   275.42688      1.1146256    
     95000   8976.5916      8205.0707      771.52095      0.0011239059   275.29065      1.1706743    
     96000   8975.901       8220.954       754.94702      0.0011239059   275.82355      0.735967     
     97000   8976.7324      8204.3222      772.41015      0.0011239059   275.26554      0.96438072   
     98000   8976.4674      8210.6109      765.85651      0.0011239059   275.47653      1.20327      
     99000   8975.8099      8224.1079      751.70198      0.0011239059   275.92937      0.88786701   
    100000   8977.4048      8191.749       785.65576      0.0011239059   274.84369      0.74984139   
    100114   8976.6056      8205.399       771.20657      0.0011239059   275.30166      0.96551035   
Loop time of 12.1098 on 4 procs for 100000 steps with 10000 atoms

Performance: 713.469 ns/day, 0.034 hours/ns, 8257.749 timesteps/s, 82.577 Matom-step/s
74.9% CPU use with 4 MPI tasks x 1 OpenMP threads

MPI task timing breakdown:
Section |  min time  |  avg time  |  max time  |%varavg| %total
---------------------------------------------------------------
Pair    | 1.3909     | 1.4404     | 1.4743     |   2.6 | 11.89
Bond    | 1.0967     | 1.1247     | 1.143      |   1.6 |  9.29
Neigh   | 0.78931    | 0.78985    | 0.79052    |   0.0 |  6.52
Comm    | 5.4168     | 5.4628     | 5.4918     |   1.2 | 45.11
Output  | 0.40015    | 0.43516    | 0.46911    |   3.9 |  3.59
Modify  | 1.6553     | 1.6897     | 1.717      |   1.7 | 13.95
Other   |            | 1.167      |            |       |  9.64

Nlocal:           2500 ave        2565 max        2453 min
Histogram: 2 0 0 0 0 1 0 0 0 1
Nghost:          741.5 ave         782 max         707 min
Histogram: 1 0 1 0 0 1 0 0 0 1
Neighs:        1152.25 ave        1210 max        1086 min
Histogram: 1 0 1 0 0 0 0 0 1 1

Total # of neighbors = 4609
Ave neighs/atom = 0.4609
Ave special neighs/atom = 1
Neighbor list builds = 2038
Dangerous builds = 0
print                   "simulation done."
simulation done.










Total wall time: 0:00:12
thermo_style            custom step etotal ke pe density temp press # what to print
thermo                  1000 # print every 1000 timesteps
dump                    myDump all xyz 1000 N2\dump.xyz # save coordinates every 1000 timesteps

minimize 		1e-6 1e-6 1000 10000 # shift atom locations to minimize the potential energy of the system. Helps if we accidentally introduce atoms that are overlapping and repel each other very strongly.
Generated 0 of 0 mixed pair_coeff terms from geometric mixing rule
Neighbor list info ...
  update: every = 1 steps, delay = 0 steps, check = yes
  max neighbors/atom: 2000, page size: 100000
  master list distance cutoff = 16.5
  ghost atom cutoff = 16.5
  binsize = 8.25, bins = 72 72 72
  1 neighbor lists, perpetual/occasional/extra = 1 0 0
  (1) pair lj/cut, perpetual
      attributes: half, newton on
      pair build: half/bin/newton
      stencil: half/bin/3d
      bin: standard
Per MPI rank memory allocation (min/avg/max) = 7.828 | 7.828 | 7.829 Mbytes
   Step         TotEng         KinEng         PotEng        Density          Temp          Press     
         0   135690.34      11922.048      123768.3       0.0011239059   400            166.77299    
       114   11919.281      11922.048     -2.7668741      0.0011239059   400            2.632666     
Loop time of 0.0660797 on 4 procs for 114 steps with 10000 atoms

47.3% CPU use with 4 MPI tasks x 1 OpenMP threads

Minimization stats:
  Stopping criterion = energy tolerance
  Energy initial, next-to-last, final = 
      123768.295313109  -2.76687290752603  -2.76687410247567
  Force two-norm initial, final = 2550121.9 1.454202
  Force max component initial, final = 1725024 0.61583364
  Final line search alpha, max atom move = 0.000335792 0.00020679201
  Iterations, force evaluations = 114 452

MPI task timing breakdown:
Section |  min time  |  avg time  |  max time  |%varavg| %total
---------------------------------------------------------------
Pair    | 0.010863   | 0.011696   | 0.012609   |   0.7 | 17.70
Bond    | 0.007274   | 0.0075243  | 0.007907   |   0.3 | 11.39
Neigh   | 0.000815   | 0.000817   | 0.00082    |   0.0 |  1.24
Comm    | 0.025051   | 0.026406   | 0.027574   |   0.6 | 39.96
Output  | 0          | 0          | 0          |   0.0 |  0.00
Modify  | 0          | 0          | 0          |   0.0 |  0.00
Other   |            | 0.01964    |            |       | 29.72

Nlocal:           2500 ave        2532 max        2434 min
Histogram: 1 0 0 0 0 0 0 1 0 2
Nghost:         758.75 ave         799 max         727 min
Histogram: 1 0 1 0 0 1 0 0 0 1
Neighs:         1158.5 ave        1226 max        1061 min
Histogram: 1 0 0 0 1 0 0 0 1 1

Total # of neighbors = 4634
Ave neighs/atom = 0.4634
Ave special neighs/atom = 1
Neighbor list builds = 2
Dangerous builds = 0

fix 			balance all balance 1000 1.2 rcb # how to assign the domain to different processors
fix			    integrator all nve # set up F=ma integration

run						${Nsteps}
run						100000
Generated 0 of 0 mixed pair_coeff terms from geometric mixing rule
Per MPI rank memory allocation (min/avg/max) = 7.948 | 7.95 | 7.951 Mbytes
   Step         TotEng         KinEng         PotEng        Density          Temp          Press     
       114   11919.281      11922.048     -2.7668741      0.0011239059   400            2.632666     
      1000   12003.285      10298.547      1704.7381      0.0011239059   345.52946      0.87819625   
      2000   11931.785      11670.501      261.2835       0.0011239059   391.56029      0.75924229   
      3000   11991.344      10531.235      1460.1086      0.0011239059   353.33646      2.1793537    
      4000   11962.018      11090.734      871.28326      0.0011239059   372.10837      1.2315334    
      5000   11967.2        10990.317      976.88222      0.0011239059   368.73925      0.53357505   
      6000   11977.523      10794.564      1182.9588      0.0011239059   362.17147      1.9360429    
      7000   11958.193      11164.832      793.36018      0.0011239059   374.59445      1.6152309    
      8000   11981.397      10717.547      1263.8501      0.0011239059   359.58744      0.50071583   
      9000   11959.532      11141.191      818.34052      0.0011239059   373.80125      1.65422      
     10000   11975.555      10831.683      1143.8715      0.0011239059   363.41688      1.7166007    
     11000   11967.531      10985.706      981.82514      0.0011239059   368.58452      0.84352091   
     12000   11968.428      10968.083      1000.3445      0.0011239059   367.99326      1.1667532    
     13000   11972.509      10892.152      1080.3567      0.0011239059   365.44568      1.8838368    
     14000   11965.584      11022.214      943.37038      0.0011239059   369.80942      1.0329564    
     15000   11973.978      10860.652      1113.3254      0.0011239059   364.38882      0.99717297   
     16000   11964.169      11052.345      911.82375      0.0011239059   370.82035      1.8220776    
     17000   11974.316      10853.076      1121.2399      0.0011239059   364.13462      1.129553     
     18000   11966.334      11010.143      956.19095      0.0011239059   369.40443      1.1689514    
     19000   11970.681      10923.491      1047.1903      0.0011239059   366.49712      1.4060357    
     20000   11969.889      10940.419      1029.4694      0.0011239059   367.06511      1.4390848    
     21000   11967.72       10982.023      985.69701      0.0011239059   368.46096      1.1704913    
     22000   11972.293      10893.678      1078.6151      0.0011239059   365.49688      1.2472317    
     23000   11965.227      11031.276      933.95086      0.0011239059   370.11347      1.5456732    
     24000   11974.014      10859.389      1114.6249      0.0011239059   364.34644      1.0859367    
     25000   11965.84       11019.784      946.05641      0.0011239059   369.72789      1.4570756    
     26000   11971.312      10912.51       1058.8021      0.0011239059   366.12871      1.228562     
     27000   11969.099      10953.933      1015.1657      0.0011239059   367.5185       1.2457696    
     28000   11968.834      10963.726      1005.1073      0.0011239059   367.84708      1.6468439    
     29000   11972.466      10887.641      1084.8249      0.0011239059   365.29431      0.79792064   
     30000   11965.467      11026.473      938.99462      0.0011239059   369.9523       1.5893401    
     31000   11972.514      10891.512      1081.0022      0.0011239059   365.4242       1.5431612    
     32000   11966.713      10998.455      968.25812      0.0011239059   369.01226      0.77811969   
     33000   11971.814      10906.331      1065.4839      0.0011239059   365.92138      1.630635     
     34000   11968.501      10965.143      1003.3578      0.0011239059   367.89462      1.4120502    
     35000   11968.481      10966.439      1002.0413      0.0011239059   367.93811      1.0304558    
     36000   11971.926      10902.539      1069.3865      0.0011239059   365.79417      1.443448     
     37000   11966.229      11009.21       957.01856      0.0011239059   369.37313      1.346242     
     38000   11972.126      10896.883      1075.2433      0.0011239059   365.60441      1.2402686    
     39000   11967.762      10982.114      985.64821      0.0011239059   368.46402      1.3819341    
     40000   11970.191      10932.471      1037.7206      0.0011239059   366.79842      1.11947      
     41000   11969.246      10953.84       1015.4063      0.0011239059   367.51537      1.5483101    
     42000   11969.202      10952.187      1017.0153      0.0011239059   367.45993      1.3046953    
     43000   11969.756      10940.05       1029.7069      0.0011239059   367.0527       0.98241978   
     44000   11968.348      10971.026      997.32182      0.0011239059   368.092        1.649246     
     45000   11970.863      10921.748      1049.1152      0.0011239059   366.43864      1.3845954    
     46000   11967.867      10977.915      989.95191      0.0011239059   368.32312      0.83215502   
     47000   11970.89       10921.585      1049.3049      0.0011239059   366.43319      1.6699288    
     48000   11967.901      10980.307      987.59456      0.0011239059   368.40337      1.5220718    
     49000   11970.095      10929.525      1040.5694      0.0011239059   366.69959      0.65895351   
     50000   11969.721      10947.505      1022.2163      0.0011239059   367.30284      1.8572935    
     51000   11968.573      10964.137      1004.4353      0.0011239059   367.86087      1.2745548    
     52000   11970.797      10921.869      1048.928       0.0011239059   366.44271      0.93251734   
     53000   11967.814      10982.212      985.60212      0.0011239059   368.46729      1.6825632    
     54000   11971.555      10907.083      1064.4718      0.0011239059   365.94664      1.2229248    
     55000   11967.625      10983.28       984.34537      0.0011239059   368.50312      1.1292834    
     56000   11969.689      10946.199      1023.4908      0.0011239059   367.259        1.581249     
     57000   11970.526      10927.022      1043.5049      0.0011239059   366.61559      1.1070152    
     58000   11968.058      10975.63       992.42782      0.0011239059   368.24647      1.3149857    
     59000   11970.74       10926.117      1044.6231      0.0011239059   366.58523      1.5360162    
     60000   11968.887      10953.484      1015.4023      0.0011239059   367.50345      0.94623295   
     61000   11969.325      10952.063      1017.2619      0.0011239059   367.45575      1.5269391    
     62000   11969.38       10951.607      1017.7731      0.0011239059   367.44045      1.4809448    
     63000   11969.931      10936.66       1033.2711      0.0011239059   366.93897      0.81078684   
     64000   11969.381      10951.878      1017.5023      0.0011239059   367.44957      1.7234802    
     65000   11969.534      10947.188      1022.3452      0.0011239059   367.29222      1.3036209    
     66000   11968.727      10960.77       1007.9568      0.0011239059   367.7479       0.9025945    
     67000   11969.839      10944.075      1025.7646      0.0011239059   367.18775      1.7496644    
     68000   11969.402      10948.133      1021.2698      0.0011239059   367.32389      1.1894299    
     69000   11968.916      10957.563      1011.3529      0.0011239059   367.64029      1.0369443    
     70000   11970.423      10932.284      1038.139       0.0011239059   366.79215      1.6923747    
     71000   11967.868      10976.859      991.00869      0.0011239059   368.28771      1.0812862    
     72000   11970.933      10921.166      1049.7668      0.0011239059   366.41913      1.2863491    
     73000   11968.619      10964.225      1004.3932      0.0011239059   367.86382      1.4023766    
     74000   11969.277      10952.295      1016.9826      0.0011239059   367.46354      1.2935727    
     75000   11969.809      10941.601      1028.2089      0.0011239059   367.10474      1.2108106    
     76000   11968.017      10976.995      991.02223      0.0011239059   368.29225      1.4183832    
     77000   11971.469      10910.697      1060.7716      0.0011239059   366.06789      1.2908613    
     78000   11968.225      10971.217      997.00752      0.0011239059   368.09842      1.176113     
     79000   11969.063      10957.671      1011.3921      0.0011239059   367.64392      1.4760007    
     80000   11969.988      10937.405      1032.5833      0.0011239059   366.96395      1.2212081    
     81000   11969.642      10945.729      1023.9127      0.0011239059   367.24326      1.272185     
     82000   11969.328      10950.943      1018.3847      0.0011239059   367.4182       1.326618     
     83000   11969.216      10954.519      1014.6965      0.0011239059   367.53816      1.3836444    
     84000   11970.143      10934.83       1035.3131      0.0011239059   366.87757      1.1798446    
     85000   11968.922      10959.725      1009.1964      0.0011239059   367.71284      1.3659874    
     86000   11969.325      10949.542      1019.7832      0.0011239059   367.37117      1.3524457    
     87000   11969.486      10947.497      1021.9884      0.0011239059   367.30258      1.2436619    
     88000   11970.391      10930.646      1039.7444      0.0011239059   366.7372       1.3131298    
     89000   11967.954      10977.867      990.08707      0.0011239059   368.32152      1.3606201    
     90000   11970.261      10932.12       1038.1412      0.0011239059   366.78666      1.2520861    
     91000   11969.777      10941.959      1027.8184      0.0011239059   367.11675      1.304854     
     92000   11968.494      10968.023      1000.4711      0.0011239059   367.99123      1.3738627    
     93000   11971.047      10917.871      1053.1762      0.0011239059   366.30857      1.2144382    
     94000   11967.524      10985.542      981.98203      0.0011239059   368.57903      1.3212479    
     95000   11970.752      10924.04       1046.712       0.0011239059   366.51556      1.4252097    
     96000   11969.032      10956.566      1012.4667      0.0011239059   367.60683      1.1430456    
     97000   11969.087      10955.267      1013.8201      0.0011239059   367.56325      1.2810441    
     98000   11970.26       10934.061      1036.1994      0.0011239059   366.85177      1.5442059    
     99000   11968.057      10975.733      992.32418      0.0011239059   368.24991      1.1218428    
    100000   11971.75       10902.853      1068.8968      0.0011239059   365.80471      1.1206476    
    100114   11969.634      10945.047      1024.5863      0.0011239059   367.22038      1.4795495    
Loop time of 13.324 on 4 procs for 100000 steps with 10000 atoms

Performance: 648.455 ns/day, 0.037 hours/ns, 7505.268 timesteps/s, 75.053 Matom-step/s
72.4% CPU use with 4 MPI tasks x 1 OpenMP threads

MPI task timing breakdown:
Section |  min time  |  avg time  |  max time  |%varavg| %total
---------------------------------------------------------------
Pair    | 1.4398     | 1.5232     | 1.6398     |   6.9 | 11.43
Bond    | 1.0972     | 1.1305     | 1.1481     |   1.8 |  8.48
Neigh   | 0.93804    | 0.9396     | 0.94166    |   0.1 |  7.05
Comm    | 6.0454     | 6.1636     | 6.2978     |   4.1 | 46.26
Output  | 0.4202     | 0.45095    | 0.4799     |   3.3 |  3.38
Modify  | 1.6783     | 1.7153     | 1.742      |   1.8 | 12.87
Other   |            | 1.401      |            |       | 10.51

Nlocal:           2500 ave        2632 max        2419 min
Histogram: 1 1 0 1 0 0 0 0 0 1
Nghost:          765.5 ave         778 max         755 min
Histogram: 1 0 0 1 0 1 0 0 0 1
Neighs:         1112.5 ave        1219 max         988 min
Histogram: 1 0 0 0 0 1 1 0 0 1

Total # of neighbors = 4450
Ave neighs/atom = 0.445
Ave special neighs/atom = 1
Neighbor list builds = 2278
Dangerous builds = 0
print                   "simulation done."
simulation done.










Total wall time: 0:00:13
thermo_style            custom step etotal ke pe density temp press # what to print
thermo                  1000 # print every 1000 timesteps
dump                    myDump all xyz 1000 N2\dump.xyz # save coordinates every 1000 timesteps

minimize 		1e-6 1e-6 1000 10000 # shift atom locations to minimize the potential energy of the system. Helps if we accidentally introduce atoms that are overlapping and repel each other very strongly.
Generated 0 of 0 mixed pair_coeff terms from geometric mixing rule
Neighbor list info ...
  update: every = 1 steps, delay = 0 steps, check = yes
  max neighbors/atom: 2000, page size: 100000
  master list distance cutoff = 16.5
  ghost atom cutoff = 16.5
  binsize = 8.25, bins = 72 72 72
  1 neighbor lists, perpetual/occasional/extra = 1 0 0
  (1) pair lj/cut, perpetual
      attributes: half, newton on
      pair build: half/bin/newton
      stencil: half/bin/3d
      bin: standard
Per MPI rank memory allocation (min/avg/max) = 7.828 | 7.828 | 7.829 Mbytes
   Step         TotEng         KinEng         PotEng        Density          Temp          Press     
         0   135690.34      11922.048      123768.3       0.0011239059   400            166.77299    
       114   11919.281      11922.048     -2.7668741      0.0011239059   400            2.632666     
Loop time of 0.0657437 on 4 procs for 114 steps with 10000 atoms

71.3% CPU use with 4 MPI tasks x 1 OpenMP threads

Minimization stats:
  Stopping criterion = energy tolerance
  Energy initial, next-to-last, final = 
      123768.295313109  -2.76687290752603  -2.76687410247567
  Force two-norm initial, final = 2550121.9 1.454202
  Force max component initial, final = 1725024 0.61583364
  Final line search alpha, max atom move = 0.000335792 0.00020679201
  Iterations, force evaluations = 114 452

MPI task timing breakdown:
Section |  min time  |  avg time  |  max time  |%varavg| %total
---------------------------------------------------------------
Pair    | 0.010955   | 0.011589   | 0.012736   |   0.6 | 17.63
Bond    | 0.007228   | 0.0074105  | 0.007504   |   0.1 | 11.27
Neigh   | 0.000845   | 0.000846   | 0.000848   |   0.0 |  1.29
Comm    | 0.024929   | 0.026179   | 0.026928   |   0.5 | 39.82
Output  | 0          | 0          | 0          |   0.0 |  0.00
Modify  | 0          | 0          | 0          |   0.0 |  0.00
Other   |            | 0.01972    |            |       | 29.99

Nlocal:           2500 ave        2532 max        2434 min
Histogram: 1 0 0 0 0 0 0 1 0 2
Nghost:         758.75 ave         799 max         727 min
Histogram: 1 0 1 0 0 1 0 0 0 1
Neighs:         1158.5 ave        1226 max        1061 min
Histogram: 1 0 0 0 1 0 0 0 1 1

Total # of neighbors = 4634
Ave neighs/atom = 0.4634
Ave special neighs/atom = 1
Neighbor list builds = 2
Dangerous builds = 0

fix 			balance all balance 1000 1.2 rcb # how to assign the domain to different processors
fix			    integrator all nve # set up F=ma integration

run						${Nsteps}
run						100000
Generated 0 of 0 mixed pair_coeff terms from geometric mixing rule
Per MPI rank memory allocation (min/avg/max) = 7.948 | 7.95 | 7.951 Mbytes
   Step         TotEng         KinEng         PotEng        Density          Temp          Press     
       114   11919.281      11922.048     -2.7668741      0.0011239059   400            2.632666     
      1000   12003.285      10298.547      1704.7381      0.0011239059   345.52946      0.87819625   
      2000   11931.785      11670.501      261.2835       0.0011239059   391.56029      0.75924229   
      3000   11991.344      10531.235      1460.1086      0.0011239059   353.33646      2.1793537    
      4000   11962.018      11090.734      871.28326      0.0011239059   372.10837      1.2315334    
      5000   11967.2        10990.317      976.88222      0.0011239059   368.73925      0.53357505   
      6000   11977.523      10794.564      1182.9588      0.0011239059   362.17147      1.9360429    
      7000   11958.193      11164.832      793.36018      0.0011239059   374.59445      1.6152309    
      8000   11981.397      10717.547      1263.8501      0.0011239059   359.58744      0.50071583   
      9000   11959.532      11141.191      818.34052      0.0011239059   373.80125      1.65422      
     10000   11975.555      10831.683      1143.8715      0.0011239059   363.41688      1.7166007    
     11000   11967.531      10985.706      981.82514      0.0011239059   368.58452      0.84352091   
     12000   11968.428      10968.083      1000.3445      0.0011239059   367.99326      1.1667532    
     13000   11972.509      10892.152      1080.3567      0.0011239059   365.44568      1.8838368    
     14000   11965.584      11022.214      943.37038      0.0011239059   369.80942      1.0329564    
     15000   11973.978      10860.652      1113.3254      0.0011239059   364.38882      0.99717297   
     16000   11964.169      11052.345      911.82375      0.0011239059   370.82035      1.8220776    
     17000   11974.316      10853.076      1121.2399      0.0011239059   364.13462      1.129553     
     18000   11966.334      11010.143      956.19095      0.0011239059   369.40443      1.1689514    
     19000   11970.681      10923.491      1047.1903      0.0011239059   366.49712      1.4060357    
[...]
Neighs:         113049 ave      115036 max      111868 min
Histogram: 2 0 0 0 1 0 0 0 0 1

Total # of neighbors = 452196
Ave neighs/atom = 4.52196
Ave special neighs/atom = 1
Neighbor list builds = 1253
Dangerous builds = 0
print                   "simulation done."
simulation done.










Total wall time: 0:00:46
thermo_style            custom step etotal ke pe density temp press # what to print
thermo                  200 # print every 1000 timesteps
dump                    myDump all xyz 200 N2\dump.xyz # save coordinates every 1000 timesteps

minimize 		1e-6 1e-6 1000 10000 # shift atom locations to minimize the potential energy of the system. Helps if we accidentally introduce atoms that are overlapping and repel each other very strongly.
Generated 0 of 0 mixed pair_coeff terms from geometric mixing rule
Neighbor list info ...
  update: every = 1 steps, delay = 0 steps, check = yes
  max neighbors/atom: 2000, page size: 100000
  master list distance cutoff = 16.5
  ghost atom cutoff = 16.5
  binsize = 8.25, bins = 72 72 72
  1 neighbor lists, perpetual/occasional/extra = 1 0 0
  (1) pair lj/cut, perpetual
      attributes: half, newton on
      pair build: half/bin/newton
      stencil: half/bin/3d
      bin: standard
Per MPI rank memory allocation (min/avg/max) = 7.927 | 7.928 | 7.929 Mbytes
   Step         TotEng         KinEng         PotEng        Density          Temp          Press     
         0   10896988       596132.2       10300856       0.0022478117   10000          13784.623    
       129   596120.07      596132.2      -12.134554      0.0022478117   10000          131.6776     
Loop time of 0.113976 on 4 procs for 129 steps with 20000 atoms

65.1% CPU use with 4 MPI tasks x 1 OpenMP threads

Minimization stats:
  Stopping criterion = energy tolerance
  Energy initial, next-to-last, final = 
      10300855.6292824  -12.1345469834371   -12.134554117206
  Force two-norm initial, final = 3.1045324e+08 6.1348708
  Force max component initial, final = 2.056849e+08 1.7073895
  Final line search alpha, max atom move = 0.00020733684 0.00035400474
  Iterations, force evaluations = 129 343

MPI task timing breakdown:
Section |  min time  |  avg time  |  max time  |%varavg| %total
---------------------------------------------------------------
Pair    | 0.031379   | 0.032749   | 0.033394   |   0.4 | 28.73
Bond    | 0.014805   | 0.015001   | 0.015356   |   0.2 | 13.16
Neigh   | 0.002539   | 0.0025427  | 0.002546   |   0.0 |  2.23
Comm    | 0.026515   | 0.027382   | 0.028895   |   0.5 | 24.02
Output  | 0          | 0          | 0          |   0.0 |  0.00
Modify  | 0          | 0          | 0          |   0.0 |  0.00
Other   |            | 0.0363     |            |       | 31.85

Nlocal:           5000 ave        5110 max        4953 min
Histogram: 2 1 0 0 0 0 0 0 0 1
Nghost:           1510 ave        1528 max        1496 min
Histogram: 1 1 0 0 0 1 0 0 0 1
Neighs:        4530.75 ave        4632 max        4317 min
Histogram: 1 0 0 0 0 0 0 0 1 2

Total # of neighbors = 18123
Ave neighs/atom = 0.90615
Ave special neighs/atom = 1
Neighbor list builds = 3
Dangerous builds = 0

fix 			balance all balance 1000 1.2 rcb # how to assign the domain to different processors
fix			    integrator all nve # set up F=ma integration

run						${Nsteps}
run						10000
Generated 0 of 0 mixed pair_coeff terms from geometric mixing rule
Per MPI rank memory allocation (min/avg/max) = 8.281 | 8.283 | 8.287 Mbytes
   Step         TotEng         KinEng         PotEng        Density          Temp          Press     
       129   596120.07      596132.2      -12.134554      0.0022478117   10000          131.6776     
       200   598495.6       547798.64      50696.968      0.0022478117   9189.214       85.704884    
       400   598249.99      551150.16      47099.823      0.0022478117   9245.4352      64.26432     
       600   598880.29      538261.01      60619.279      0.0022478117   9029.2222      66.156166    
       800   598417.93      547147.13      51270.796      0.0022478117   9178.2851      66.34889     
      1000   598794.91      539681.75      59113.159      0.0022478117   9053.0548      61.668132    
      1200   598462.68      546190.93      52271.746      0.0022478117   9162.2451      68.011453    
      1400   598774.39      539977.63      58796.756      0.0022478117   9058.0181      62.233145    
      1600   598536.44      545120.99      53415.455      0.0022478117   9144.297       67.325121    
      1800   598687.4       541250.77      57436.625      0.0022478117   9079.3749      60.181367    
      2000   598547.56      544856.25      53691.311      0.0022478117   9139.8561      70.355683    
      2200   598700.41      541772.5       56927.918      0.0022478117   9088.1267      62.969658    
      2400   598534.68      544756.91      53777.764      0.0022478117   9138.1896      64.226717    
      2600   598735.04      541006.04      57729.002      0.0022478117   9075.2695      67.852974    
      2800   598561.47      544123         54438.473      0.0022478117   9127.5558      62.968841    
      3000   598677         541715.38      56961.627      0.0022478117   9087.1685      61.791464    
      3200   598552.71      544659.51      53893.204      0.0022478117   9136.5557      70.350887    
      3400   598663.14      541996.41      56666.733      0.0022478117   9091.8827      61.199548    
      3600   598569.79      543910.15      54659.644      0.0022478117   9123.9853      65.192128    
      3800   598677.9       542440.4       56237.5        0.0022478117   9099.3307      69.010744    
      4000   598589.01      543393.44      55195.576      0.0022478117   9115.3176      61.025667    
      4200   598586.56      543647.15      54939.408      0.0022478117   9119.5737      66.889165    
      4400   598567.18      544233.51      54333.672      0.0022478117   9129.4096      67.141559    
      4600   598595.37      543387.27      55208.101      0.0022478117   9115.2141      63.057194    
      4800   598625.71      542987.31      55638.4        0.0022478117   9108.5049      65.888823    
      5000   598632.39      542984.36      55648.036      0.0022478117   9108.4554      66.108858    
      5200   598567.41      543927.88      54639.525      0.0022478117   9124.2829      65.761087    
      5400   598607.01      542740.62      55866.395      0.0022478117   9104.3667      60.828484    
      5600   598609.99      543306.9       55303.091      0.0022478117   9113.866       66.18568     
      5800   598647.71      542793.93      55853.778      0.0022478117   9105.261       68.933475    
      6000   598652.58      542334.7       56317.876      0.0022478117   9097.5576      61.204543    
      6200   598677.76      541738.13      56939.628      0.0022478117   9087.5502      63.513861    
      6400   598578.72      543898.43      54680.293      0.0022478117   9123.7887      70.560665    
      6600   598627.16      542257.65      56369.506      0.0022478117   9096.2651      58.870794    
      6800   598637.39      542438.59      56198.797      0.0022478117   9099.3003      64.170352    
      7000   598589.96      543554.14      55035.822      0.0022478117   9118.0134      69.405412    
      7200   598658.11      541837.69      56820.427      0.0022478117   9089.2202      60.665064    
      7400   598621.92      542972.07      55649.844      0.0022478117   9108.2494      65.079046    
      7600   598570.78      543386.87      55183.905      0.0022478117   9115.2075      66.003658    
      7800   598575.65      544091.38      54484.274      0.0022478117   9127.0254      66.982476    
      8000   598646.41      542548.67      56097.739      0.0022478117   9101.1468      62.795241    
      8200   598568.12      544080.62      54487.492      0.0022478117   9126.845       68.571426    
      8400   598625.35      542965.07      55660.281      0.0022478117   9108.1318      66.348564    
      8600   598613         543225.46      55387.539      0.0022478117   9112.4999      63.555922    
      8800   598663.46      542117.75      56545.708      0.0022478117   9093.9182      66.403556    
      9000   598578.84      543299.76      55279.079      0.0022478117   9113.7462      65.1423      
      9200   598634.24      542356.39      56277.842      0.0022478117   9097.9215      63.029414    
      9400   598573.42      543810.61      54762.814      0.0022478117   9122.3156      66.802168    
      9600   598611.02      542660.64      55950.374      0.0022478117   9103.0251      63.512242    
      9800   598595.39      543159.51      55435.875      0.0022478117   9111.3936      66.552147    
     10000   598647.16      541799.29      56847.869      0.0022478117   9088.5761      61.955873    
     10129   598562.7       544007.26      54555.44       0.0022478117   9125.6144      66.943885    
Loop time of 4.233 on 4 procs for 10000 steps with 20000 atoms

Performance: 204.110 ns/day, 0.118 hours/ns, 2362.389 timesteps/s, 47.248 Matom-step/s
87.7% CPU use with 4 MPI tasks x 1 OpenMP threads

MPI task timing breakdown:
Section |  min time  |  avg time  |  max time  |%varavg| %total
---------------------------------------------------------------
Pair    | 0.66373    | 0.68306    | 0.7134     |   2.5 | 16.14
Bond    | 0.36694    | 0.37737    | 0.38657    |   1.2 |  8.91
Neigh   | 0.97872    | 0.98207    | 0.98552    |   0.3 | 23.20
Comm    | 1.0339     | 1.0675     | 1.09       |   2.1 | 25.22
Output  | 0.40293    | 0.43196    | 0.46125    |   3.3 | 10.20
Modify  | 0.35662    | 0.36297    | 0.37096    |   0.9 |  8.57
Other   |            | 0.3281     |            |       |  7.75

Nlocal:           5000 ave        5006 max        4986 min
Histogram: 1 0 0 0 0 0 0 0 1 2
Nghost:        1534.25 ave        1607 max        1473 min
Histogram: 1 0 0 1 1 0 0 0 0 1
Neighs:           4587 ave        4650 max        4440 min
Histogram: 1 0 0 0 0 0 0 0 1 2

Total # of neighbors = 18348
Ave neighs/atom = 0.9174
Ave special neighs/atom = 1
Neighbor list builds = 1096
Dangerous builds = 0
print                   "simulation done."
simulation done.










Total wall time: 0:00:04
thermo_style            custom step etotal ke pe density temp press # what to print
thermo                  200 # print every 1000 timesteps
dump                    myDump all xyz 200 N2\dump.xyz # save coordinates every 1000 timesteps

minimize 		1e-6 1e-6 1000 10000 # shift atom locations to minimize the potential energy of the system. Helps if we accidentally introduce atoms that are overlapping and repel each other very strongly.
Generated 0 of 0 mixed pair_coeff terms from geometric mixing rule
Neighbor list info ...
  update: every = 1 steps, delay = 0 steps, check = yes
  max neighbors/atom: 2000, page size: 100000
  master list distance cutoff = 16.5
  ghost atom cutoff = 16.5
  binsize = 8.25, bins = 72 72 72
  1 neighbor lists, perpetual/occasional/extra = 1 0 0
  (1) pair lj/cut, perpetual
      attributes: half, newton on
      pair build: half/bin/newton
      stencil: half/bin/3d
      bin: standard
Per MPI rank memory allocation (min/avg/max) = 7.772 | 7.772 | 7.773 Mbytes
   Step         TotEng         KinEng         PotEng        Density          Temp          Press     
         0   242800.03      119202.59      123597.44      0.00044956235  10000          190.23858    
        72   119202.17      119202.59     -0.42400052     0.00044956235  10000          26.330127    
Loop time of 0.010662 on 4 procs for 72 steps with 4000 atoms

0.0% CPU use with 4 MPI tasks x 1 OpenMP threads

Minimization stats:
  Stopping criterion = energy tolerance
  Energy initial, next-to-last, final = 
      123597.438961249 -0.424000332244299  -0.42400051944767
  Force two-norm initial, final = 2550121 0.14360825
  Force max component initial, final = 1725024 0.092342553
  Final line search alpha, max atom move = 0.0625 0.0057714096
  Iterations, force evaluations = 72 210

MPI task timing breakdown:
Section |  min time  |  avg time  |  max time  |%varavg| %total
---------------------------------------------------------------
Pair    | 0.000802   | 0.0008475  | 0.000916   |   0.0 |  7.95
Bond    | 0.001326   | 0.001375   | 0.001474   |   0.2 | 12.90
Neigh   | 0.000338   | 0.00033925 | 0.00034    |   0.0 |  3.18
Comm    | 0.002363   | 0.0025002  | 0.002593   |   0.2 | 23.45
Output  | 0          | 0          | 0          |   0.0 |  0.00
Modify  | 0          | 0          | 0          |   0.0 |  0.00
Other   |            | 0.0056     |            |       | 52.52

Nlocal:           1000 ave        1056 max         969 min
Histogram: 1 1 1 0 0 0 0 0 0 1
Nghost:          313.5 ave         348 max         286 min
Histogram: 1 1 0 0 0 1 0 0 0 1
Neighs:            181 ave         199 max         166 min
Histogram: 1 1 0 0 0 0 1 0 0 1

Total # of neighbors = 724
Ave neighs/atom = 0.181
Ave special neighs/atom = 1
Neighbor list builds = 2
Dangerous builds = 0

fix 			balance all balance 1000 1.2 rcb # how to assign the domain to different processors
fix			    integrator all nve # set up F=ma integration

run						${Nsteps}
run						10000
Generated 0 of 0 mixed pair_coeff terms from geometric mixing rule
Per MPI rank memory allocation (min/avg/max) = 7.756 | 7.757 | 7.759 Mbytes
   Step         TotEng         KinEng         PotEng        Density          Temp          Press     
        72   119202.17      119202.59     -0.42400052     0.00044956235  10000          26.330127    
       200   119952.3       103130.1       16822.208      0.00044956235  8651.6654      7.1040234    
       400   119589.55      111013.85      8575.6932      0.00044956235  9313.04        14.133057    
       600   119760.27      107613.91      12146.352      0.00044956235  9027.8165      13.853526    
       800   119668.39      109246.48      10421.91       0.00044956235  9164.7741      13.512836    
      1000   119722.21      108034.12      11688.088      0.00044956235  9063.068       10.793794    
      1200   119645.75      109557.82      10087.933      0.00044956235  9190.8919      12.762564    
      1400   119703.4       108627.82      11075.581      0.00044956235  9112.8738      14.632065    
      1600   119674.18      109125.82      10548.357      0.00044956235  9154.6513      11.872618    
      1800   119725.48      108074.33      11651.143      0.00044956235  9066.4415      11.606472    
      2000   119661.52      109460.18      10201.345      0.00044956235  9182.7011      15.642139    
      2200   119697.06      108581.84      11115.223      0.00044956235  9109.0163      10.717968    
      2400   119678         109155.11      10522.892      0.00044956235  9157.1084      13.728692    
      2600   119701.59      108518.15      11183.436      0.00044956235  9103.6739      13.36557     
      2800   119699.21      108599.47      11099.74       0.00044956235  9110.496       11.470958    
      3000   119691.19      108927.43      10763.763      0.00044956235  9138.0081      13.748426    
      3200   119670.88      109332.84      10338.037      0.00044956235  9172.0188      14.363672    
      3400   119705.27      108419.84      11285.436      0.00044956235  9095.4262      11.055187    
      3600   119687.06      108949.26      10737.805      0.00044956235  9139.8395      13.67461     
      3800   119716.15      108522.35      11193.802      0.00044956235  9104.0256      13.979395    
      4000   119698.07      108496.69      11201.379      0.00044956235  9101.8732      11.060218    
      4200   119686.96      108974.49      10712.476      0.00044956235  9141.956       14.426231    
      4400   119704.07      108500.39      11203.68       0.00044956235  9102.1834      11.749366    
      4600   119698.82      108650.08      11048.74       0.00044956235  9114.741       13.141714    
      4800   119681.56      108957.59      10723.965      0.00044956235  9140.5387      13.291614    
      5000   119686.98      108900.29      10786.693      0.00044956235  9135.7317      12.703026    
      5200   119709.72      108356.34      11353.383      0.00044956235  9090.0988      12.402711    
      5400   119694.46      108704.76      10989.694      0.00044956235  9119.3286      12.854262    
      5600   119709.19      108655.56      11053.631      0.00044956235  9115.2007      14.049858    
      5800   119674.44      109042.73      10631.718      0.00044956235  9147.6806      11.874723    
      6000   119708.49      108430.46      11278.032      0.00044956235  9096.3171      13.054545    
      6200   119701.97      108701.9       11000.069      0.00044956235  9119.0887      13.713106    
      6400   119699.5       108556         11143.501      0.00044956235  9106.8491      11.508244    
      6600   119695.8       108862.67      10833.133      0.00044956235  9132.5756      14.400455    
      6800   119686.65      108775.04      10911.612      0.00044956235  9125.224       12.079319    
      7000   119693.83      108687.67      11006.162      0.00044956235  9117.8947      13.067105    
      7200   119701.44      108562.92      11138.518      0.00044956235  9107.4291      12.118453    
      7400   119695.05      108781.57      10913.476      0.00044956235  9125.7722      13.959227    
      7600   119697.89      108476.05      11221.836      0.00044956235  9100.1417      11.519855    
      7800   119700.53      108630.53      11069.998      0.00044956235  9113.1012      12.933214    
      8000   119686.84      108985.04      10701.802      0.00044956235  9142.8415      13.702247    
      8200   119700.38      108733.43      10966.95       0.00044956235  9121.7335      13.176836    
      8400   119712.94      108364.69      11348.246      0.00044956235  9090.8001      12.256256    
      8600   119698.66      108730.54      10968.124      0.00044956235  9121.4908      13.766552    
      8800   119703.52      108535.84      11167.681      0.00044956235  9105.1573      12.468352    
      9000   119700.52      108648.91      11051.616      0.00044956235  9114.6427      13.075844    
      9200   119716.01      108199.92      11516.086      0.00044956235  9076.9769      11.268387    
      9400   119687.6       108988.21      10699.384      0.00044956235  9143.1076      14.79162     
      9600   119705.95      108465.62      11240.332      0.00044956235  9099.2667      12.215551    
      9800   119707.15      108539.15      11168.001      0.00044956235  9105.4352      11.877436    
     10000   119707.31      108614.84      11092.469      0.00044956235  9111.7848      14.304501    
     10072   119681.37      108786.32      10895.045      0.00044956235  9126.1706      13.215081    
Loop time of 0.718426 on 4 procs for 10000 steps with 4000 atoms

Performance: 1202.629 ns/day, 0.020 hours/ns, 13919.323 timesteps/s, 55.677 Matom-step/s
88.6% CPU use with 4 MPI tasks x 1 OpenMP threads

MPI task timing breakdown:
Section |  min time  |  avg time  |  max time  |%varavg| %total
---------------------------------------------------------------
Pair    | 0.029557   | 0.032389   | 0.034463   |   1.1 |  4.51
Bond    | 0.043953   | 0.045682   | 0.046502   |   0.5 |  6.36
Neigh   | 0.17072    | 0.17192    | 0.17331    |   0.2 | 23.93
Comm    | 0.19016    | 0.19189    | 0.1959     |   0.5 | 26.71
Output  | 0.0972     | 0.1042     | 0.11138    |   1.6 | 14.50
Modify  | 0.067385   | 0.070191   | 0.072616   |   0.7 |  9.77
Other   |            | 0.1022     |            |       | 14.22

Nlocal:           1000 ave        1036 max         941 min
Histogram: 1 0 0 0 0 0 1 0 1 1
Nghost:         303.75 ave         311 max         298 min
Histogram: 1 1 0 0 0 0 1 0 0 1
Neighs:          179.5 ave         199 max         169 min
Histogram: 1 1 1 0 0 0 0 0 0 1

Total # of neighbors = 718
Ave neighs/atom = 0.1795
Ave special neighs/atom = 1
Neighbor list builds = 1023
Dangerous builds = 0
print                   "simulation done."
simulation done.










Total wall time: 0:00:00
