# Ar gas simulation

0 atoms
0 bonds
0 angles
0 dihedrals

1 atom types
0 bond types
0 angle types
0 dihedral types

-50 50 xlo xhi
-50 50 ylo yhi
-50 50 zlo zhi

Masses

1 63.546 #N molar mass
