thermo_style            custom step etotal ke pe density temp press # what to print
thermo                  100 # print every 1000 timesteps
dump                    myDump all xyz 100 Cu\dump.xyz # save coordinates every 1000 timesteps


#Initial relaxation simualtion
timestep				0.001

#fix 1 all box/relax iso 0.0 vmax 0.001
min_style fire
minimize 1e-4 1e-6 5000 50000
Neighbor list info ...
  update: every = 1 steps, delay = 0 steps, check = yes
  max neighbors/atom: 2000, page size: 100000
  master list distance cutoff = 6
  ghost atom cutoff = 6
  binsize = 3, bins = 145 145 145
  2 neighbor lists, perpetual/occasional/extra = 2 0 0
  (1) pair meam, perpetual
      attributes: full, newton on
      pair build: full/bin/atomonly
      stencil: full/bin/3d
      bin: standard
  (2) pair meam, perpetual, half/full from (1)
      attributes: half, newton on
      pair build: halffull/newton
      stencil: none
      bin: none
  Parameters for fire:
    dmax  delaystep dtgrow dtshrink alpha0 alphashrink tmax tmin   integrator   halfstepback   abcfire  
     0.1     20      1.1     0.5     0.25     0.99      10  0.02 eulerimplicit      yes          no     
Per MPI rank memory allocation (min/avg/max) = 38.85 | 39.42 | 39.86 Mbytes
   Step         TotEng         KinEng         PotEng        Density          Temp          Press     
         0  -196057.42      0             -196057.42      0.072994333    0              21.424025    
        22  -196059.8       6.1636104     -196065.96      0.072994333    0.8444088      22.501168    
Loop time of 1.74733 on 4 procs for 22 steps with 56471 atoms

93.9% CPU use with 4 MPI tasks x 1 OpenMP threads

Minimization stats:
  Stopping criterion = energy tolerance
  Energy initial, next-to-last, final = 
     -196057.418492785  -196065.233087655  -196065.959029484
  Force two-norm initial, final = 17.802191 15.136184
  Force max component initial, final = 0.59028212 0.5027157
  Final line search alpha, max atom move = 0 0
  Iterations, force evaluations = 22 23

MPI task timing breakdown:
Section |  min time  |  avg time  |  max time  |%varavg| %total
---------------------------------------------------------------
Pair    | 1.6743     | 1.6836     | 1.6937     |   0.6 | 96.35
Neigh   | 0          | 0          | 0          |   0.0 |  0.00
Comm    | 0.019067   | 0.028987   | 0.037966   |   4.2 |  1.66
Output  | 0          | 0          | 0          |   0.0 |  0.00
Modify  | 0          | 0          | 0          |   0.0 |  0.00
Other   |            | 0.03471    |            |       |  1.99

Nlocal:        14117.8 ave       14838 max       13413 min
Histogram: 1 0 0 0 2 0 0 0 0 1
Nghost:        5271.25 ave        5976 max        4551 min
Histogram: 1 0 0 0 0 2 0 0 0 1
Neighs:         515799 ave      526179 max      505840 min
Histogram: 1 0 1 0 0 0 0 1 0 1
FullNghs:   1.0316e+06 ave 1.08504e+06 max      979301 min
Histogram: 1 0 0 0 2 0 0 0 0 1

Total # of neighbors = 4126392
Ave neighs/atom = 73.070992
Neighbor list builds = 0
Dangerous builds = 0

velocity all create 300 12345 mom yes rot yes dist gaussian

fix 1 all nvt temp 300 300 0.1
run 5000
Per MPI rank memory allocation (min/avg/max) = 41.63 | 42 | 42.22 Mbytes
   Step         TotEng         KinEng         PotEng        Density          Temp          Press     
        22  -193876.16      2189.7961     -196065.96      0.072994333    300            51.07484     
       100  -193822.58      1285.1562     -195107.73      0.072994333    176.06519      64.233316    
       200  -193666.92      1096.1685     -194763.09      0.072994333    150.17405      63.965671    
       300  -193489.29      1397.4179     -194886.71      0.072994333    191.44493      48.318701    
       400  -193288.97      1495.1452     -194784.11      0.072994333    204.83348      30.398576    
       500  -193077.25      1578.5422     -194655.79      0.072994333    216.25879      18.480339    
       600  -192856.64      1767.5927     -194624.24      0.072994333    242.15853      0.40045953   
       700  -192637.08      1865.2566     -194502.33      0.072994333    255.53839     -14.297008    
       800  -192427.5       1995.7873     -194423.29      0.072994333    273.42098     -28.814868    
       900  -192239.85      2104.0625     -194343.91      0.072994333    288.25457     -42.218955    
      1000  -192090.67      2194.6482     -194285.32      0.072994333    300.66473     -56.003494    
      1100  -192003.82      2225.8206     -194229.64      0.072994333    304.93531     -68.423211    
      1200  -191997.97      2224.7483     -194222.72      0.072994333    304.78842     -76.763242    
      1300  -192056.86      2196.1197     -194252.98      0.072994333    300.86633     -83.578109    
      1400  -192109.43      2173.2569     -194282.69      0.072994333    297.73415     -85.596326    
      1500  -192111.11      2164.6197     -194275.73      0.072994333    296.55085     -81.669386    
      1600  -192065.86      2192.7246     -194258.58      0.072994333    300.40121     -73.895876    
      1700  -192033.43      2217.3852     -194250.82      0.072994333    303.77967     -64.826306    
      1800  -192055.94      2216.4509     -194272.39      0.072994333    303.65168     -52.240427    
      1900  -192115.45      2178.8694     -194294.32      0.072994333    298.50304     -34.21715     
      2000  -192154.86      2166.1944     -194321.06      0.072994333    296.76658     -9.6251484    
      2100  -192149.74      2171.4932     -194321.23      0.072994333    297.49252      18.746646    
      2200  -192109.44      2180.0704     -194289.52      0.072994333    298.66759      47.682072    
      2300  -192076.16      2197.6937     -194273.85      0.072994333    301.08197      70.386524    
      2400  -192075.98      2207.9943     -194283.97      0.072994333    302.49313      75.074711    
      2500  -192104.47      2187.9033     -194292.38      0.072994333    299.74069      78.444011    
      2600  -192124.83      2169.7367     -194294.57      0.072994333    297.25188      79.137082    
      2700  -192113.83      2172.2631     -194286.09      0.072994333    297.598        75.477981    
      2800  -192074.74      2199.2443     -194273.98      0.072994333    301.2944       71.349261    
      2900  -192051.13      2220.4692     -194271.6       0.072994333    304.20218      64.895344    
      3000  -192076.92      2206.4872     -194283.41      0.072994333    302.28666      56.863197    
      3100  -192126.83      2166.5938     -194293.43      0.072994333    296.8213       42.938022    
      3200  -192154.29      2166.5484     -194320.84      0.072994333    296.81508      28.816142    
      3300  -192142.55      2170.2842     -194312.83      0.072994333    297.32689      11.19937     
      3400  -192100.19      2205.1488     -194305.34      0.072994333    302.10331     -6.0244915    
      3500  -192073.36      2212.5224     -194285.89      0.072994333    303.11348     -24.024192    
      3600  -192084.45      2197.4356     -194281.88      0.072994333    301.0466      -40.790778    
      3700  -192110.83      2176.0222     -194286.86      0.072994333    298.11299     -56.5366      
      3800  -192111.07      2166.3759     -194277.45      0.072994333    296.79146     -70.529998    
      3900  -192074.21      2188.227      -194262.44      0.072994333    299.78503     -80.735399    
      4000  -192039.39      2210.8293     -194250.21      0.072994333    302.88153     -88.223005    
      4100  -192038.62      2207.8535     -194246.48      0.072994333    302.47385     -89.701529    
      4200  -192070.28      2195.4474     -194265.73      0.072994333    300.77422     -77.49632     
      4300  -192107.78      2178.4312     -194286.21      0.072994333    298.44302     -57.287255    
      4400  -192124.33      2171.2137     -194295.55      0.072994333    297.45423     -35.872561    
      4500  -192112.07      2189.8543     -194301.92      0.072994333    300.00797     -15.662221    
      4600  -192093.77      2191.2366     -194285.01      0.072994333    300.19735     -2.4878653    
      4700  -192091.64      2210.6449     -194302.29      0.072994333    302.85626      8.9321016    
      4800  -192114.03      2188.2455     -194302.27      0.072994333    299.78757      19.699958    
      4900  -192128.26      2179.3228     -194307.58      0.072994333    298.56517      33.511702    
      5000  -192118.69      2184.4297     -194303.11      0.072994333    299.2648       46.228114    
      5022  -192113.49      2184.4751     -194297.97      0.072994333    299.27103      49.10323     
Loop time of 551.303 on 4 procs for 5000 steps with 56471 atoms

Performance: 0.784 ns/day, 30.628 hours/ns, 9.069 timesteps/s, 512.159 katom-step/s
97.6% CPU use with 4 MPI tasks x 1 OpenMP threads

MPI task timing breakdown:
Section |  min time  |  avg time  |  max time  |%varavg| %total
---------------------------------------------------------------
Pair    | 537.34     | 541.36     | 545.14     |  16.1 | 98.20
Neigh   | 0.24308    | 0.24431    | 0.2466     |   0.3 |  0.04
Comm    | 2.3447     | 6.1259     | 10.138     | 152.5 |  1.11
Output  | 0.9947     | 1.0968     | 1.1975     |   7.2 |  0.20
Modify  | 1.5956     | 1.6762     | 1.7441     |   4.1 |  0.30
Other   |            | 0.7958     |            |       |  0.14

Nlocal:        14117.8 ave       14189 max       14039 min
Histogram: 1 0 0 0 0 2 0 0 0 1
Nghost:        5271.25 ave        5350 max        5200 min
Histogram: 1 0 0 0 2 0 0 0 0 1
Neighs:         514353 ave      531788 max      494515 min
Histogram: 1 1 0 0 0 0 0 0 0 2
FullNghs:  1.02871e+06 ave  1.0341e+06 max 1.02269e+06 min
Histogram: 1 0 0 0 0 2 0 0 0 1

Total # of neighbors = 4114822
Ave neighs/atom = 72.866108
Neighbor list builds = 7
Dangerous builds = 0
unfix 1

fix 2 all nve
run 2000
Per MPI rank memory allocation (min/avg/max) = 41.63 | 42.04 | 42.22 Mbytes
   Step         TotEng         KinEng         PotEng        Density          Temp          Press     
      5022  -192113.49      2184.4751     -194297.97      0.072994333    299.27103      49.10323     
      5100  -192113.49      2180.0306     -194293.53      0.072994333    298.66213      58.883788    
      5200  -192113.5       2180.2286     -194293.73      0.072994333    298.68926      67.074247    
      5300  -192113.5       2182.6835     -194296.18      0.072994333    299.02558      74.766212    
      5400  -192113.5       2182.5131     -194296.01      0.072994333    299.00224      74.89409     
      5500  -192113.5       2187.7741     -194301.27      0.072994333    299.72299      70.260972    
      5600  -192113.5       2184.5816     -194298.08      0.072994333    299.28562      62.437304    
      5700  -192113.49      2181.8036     -194295.3       0.072994333    298.90503      51.257507    
      5800  -192113.5       2194.7228     -194308.22      0.072994333    300.67495      36.725289    
      5900  -192113.49      2189.1208     -194302.61      0.072994333    299.90748      16.789276    
      6000  -192113.49      2190.2364     -194303.73      0.072994333    300.06032     -5.8983762    
      6100  -192113.49      2181.9261     -194295.41      0.072994333    298.92181     -29.822775    
      6200  -192113.49      2172.5904     -194286.08      0.072994333    297.64284     -50.383106    
      6300  -192113.49      2181.6546     -194295.15      0.072994333    298.88462     -63.348006    
      6400  -192113.48      2160.2282     -194273.71      0.072994333    295.94922     -69.020173    
      6500  -192113.49      2174.8548     -194288.34      0.072994333    297.95305     -65.387582    
      6600  -192113.49      2166.3678     -194279.85      0.072994333    296.79034     -60.563154    
      6700  -192113.49      2174.4649     -194287.95      0.072994333    297.89964     -58.506083    
      6800  -192113.48      2172.3833     -194285.87      0.072994333    297.61446     -55.582989    
      6900  -192113.49      2171.88       -194285.37      0.072994333    297.5455      -47.611799    
      7000  -192113.49      2185.1518     -194298.64      0.072994333    299.36374     -38.219035    
      7022  -192113.49      2188.4517     -194301.94      0.072994333    299.81581     -36.298251    
Loop time of 221.133 on 4 procs for 2000 steps with 56471 atoms

Performance: 0.781 ns/day, 30.713 hours/ns, 9.044 timesteps/s, 510.743 katom-step/s
97.5% CPU use with 4 MPI tasks x 1 OpenMP threads

MPI task timing breakdown:
Section |  min time  |  avg time  |  max time  |%varavg| %total
---------------------------------------------------------------
Pair    | 215.71     | 217.26     | 218.89     |  10.4 | 98.25
Neigh   | 0.068747   | 0.069799   | 0.071874   |   0.5 |  0.03
Comm    | 0.89627    | 2.5419     | 4.1176     |  96.5 |  1.15
Output  | 0.3952     | 0.43123    | 0.4663     |   4.0 |  0.20
Modify  | 0.52305    | 0.52987    | 0.53985    |   0.9 |  0.24
Other   |            | 0.2991     |            |       |  0.14

Nlocal:        14117.8 ave       14167 max       14029 min
Histogram: 1 0 0 0 0 0 1 0 1 1
Nghost:        5271.25 ave        5360 max        5222 min
Histogram: 1 1 0 1 0 0 0 0 0 1
Neighs:         513802 ave      531765 max      497494 min
Histogram: 2 0 0 0 0 0 0 0 1 1
FullNghs:   1.0276e+06 ave 1.03114e+06 max  1.0205e+06 min
Histogram: 1 0 0 0 0 0 0 1 0 2

Total # of neighbors = 4110416
Ave neighs/atom = 72.788086
Neighbor list builds = 2
Dangerous builds = 0
unfix 2


#fix 			balance all balance 1000 1.2 rcb # how to assign the domain to different processors
#fix			    integrator all nve # set up F=ma integration
#reset_timestep 0 # - undump required before this


#Simulation...
#run						${Nsteps}
print                   "simulation done."
simulation done.
Total wall time: 0:12:54
